; DRG_GMX.itp created by acpype (v: 2023.10.27) on Tue Jul 28 18:04:15 2026

[ moleculetype ]
;name            nrexcl
 DRG              3

[ atoms ]
;   nr  type  resi  res  atom  cgnr     charge      mass       ; qtot   bond_type
     1   c3     1   DRG     C    1    -0.118100     12.01000 ; qtot -0.118
     2   cc     1   DRG    C1    2    -0.262400     12.01000 ; qtot -0.380
     3   cc     1   DRG    C2    3     0.385700     12.01000 ; qtot 0.005
     4   c3     1   DRG    C3    4    -0.113700     12.01000 ; qtot -0.108
     5   c3     1   DRG    C4    5     0.049700     12.01000 ; qtot -0.059
     6    c     1   DRG    C5    6     0.688100     12.01000 ; qtot 0.629
     7   cx     1   DRG    C6    7    -0.225700     12.01000 ; qtot 0.404
     8   cx     1   DRG    C7    8    -0.099400     12.01000 ; qtot 0.304
     9   cx     1   DRG    C8    9    -0.088700     12.01000 ; qtot 0.215
    10   c3     1   DRG    C9   10    -0.074100     12.01000 ; qtot 0.141
    11    c     1   DRG   C10   11     0.648100     12.01000 ; qtot 0.789
    12   c3     1   DRG   C11   12     0.028300     12.01000 ; qtot 0.818
    13   c6     1   DRG   C12   13     0.045000     12.01000 ; qtot 0.863
    14   c6     1   DRG   C13   14    -0.103400     12.01000 ; qtot 0.759
    15   c6     1   DRG   C14   15    -0.106400     12.01000 ; qtot 0.653
    16   c6     1   DRG   C15   16     0.082500     12.01000 ; qtot 0.735
    17    c     1   DRG   C16   17     0.642100     12.01000 ; qtot 1.378
    18   c3     1   DRG   C17   18     0.128400     12.01000 ; qtot 1.506
    19   c3     1   DRG   C18   19    -0.056000     12.01000 ; qtot 1.450
    20   c3     1   DRG   C19   20    -0.092100     12.01000 ; qtot 1.358
    21   c3     1   DRG   C20   21    -0.092100     12.01000 ; qtot 1.266
    22   c3     1   DRG   C21   22    -0.004200     12.01000 ; qtot 1.262
    23   ca     1   DRG   C22   23    -0.032200     12.01000 ; qtot 1.229
    24   cd     1   DRG   C23   24    -0.108400     12.01000 ; qtot 1.121
    25   cc     1   DRG   C24   25    -0.015300     12.01000 ; qtot 1.106
    26   ca     1   DRG   C25   26    -0.111100     12.01000 ; qtot 0.995
    27   ca     1   DRG   C26   27     0.393600     12.01000 ; qtot 1.388
    28   ca     1   DRG   C27   28     0.374200     12.01000 ; qtot 1.762
    29   ca     1   DRG   C28   29     0.027300     12.01000 ; qtot 1.790
    30   ca     1   DRG   C29   30    -0.143000     12.01000 ; qtot 1.647
    31   c6     1   DRG   C30   31     0.183800     12.01000 ; qtot 1.830
    32   c6     1   DRG   C31   32     0.164800     12.01000 ; qtot 1.995
    33   c3     1   DRG   C32   33     0.157100     12.01000 ; qtot 2.152
    34   ca     1   DRG   C33   34    -0.107800     12.01000 ; qtot 2.045
    35   c6     1   DRG   C34   35     0.164800     12.01000 ; qtot 2.209
    36   c6     1   DRG   C35   36     0.183800     12.01000 ; qtot 2.393
    37   c3     1   DRG   C36   37     0.095800     12.01000 ; qtot 2.489
    38   c3     1   DRG   C37   38    -0.120100     12.01000 ; qtot 2.369
    39   c3     1   DRG   C38   39     0.114700     12.01000 ; qtot 2.484
    40   ca     1   DRG   C39   40    -0.047000     12.01000 ; qtot 2.437
    41   ca     1   DRG   C40   41    -0.154500     12.01000 ; qtot 2.282
    42   ca     1   DRG   C41   42    -0.096000     12.01000 ; qtot 2.186
    43   ca     1   DRG   C42   43    -0.151000     12.01000 ; qtot 2.035
    44   cd     1   DRG   C43   44     0.412800     12.01000 ; qtot 2.448
    45   na     1   DRG     N   45    -0.058400     14.01000 ; qtot 2.389
    46   ns     1   DRG    N1   46    -0.559900     14.01000 ; qtot 1.830
    47    n     1   DRG    N2   47    -0.326200     14.01000 ; qtot 1.503
    48   n7     1   DRG    N3   48    -0.537200     14.01000 ; qtot 0.966
    49   nb     1   DRG    N4   49    -0.630000     14.01000 ; qtot 0.336
    50   nh     1   DRG    N5   50    -0.627000     14.01000 ; qtot -0.291
    51   n3     1   DRG    N6   51    -0.729601     14.01000 ; qtot -1.020
    52   nd     1   DRG    N7   52    -0.632000     14.01000 ; qtot -1.652
    53    o     1   DRG     O   53    -0.599100     16.00000 ; qtot -2.252
    54    o     1   DRG    O1   54    -0.607100     16.00000 ; qtot -2.859
    55    o     1   DRG    O2   55    -0.540000     16.00000 ; qtot -3.399
    56   os     1   DRG    O3   56    -0.429900     16.00000 ; qtot -3.829
    57   os     1   DRG    O4   57    -0.419600     16.00000 ; qtot -4.248
    58   ss     1   DRG     S   58    -0.061300     32.06000 ; qtot -4.309
    59   hc     1   DRG     H   59     0.045700      1.00800 ; qtot -4.264
    60   hc     1   DRG    H1   60     0.045700      1.00800 ; qtot -4.218
    61   hc     1   DRG    H2   61     0.045700      1.00800 ; qtot -4.172
    62   h4     1   DRG    H3   62     0.181000      1.00800 ; qtot -3.991
    63   hc     1   DRG    H4   63     0.074700      1.00800 ; qtot -3.917
    64   hc     1   DRG    H5   64     0.074700      1.00800 ; qtot -3.842
    65   h1     1   DRG    H6   65     0.139700      1.00800 ; qtot -3.702
    66   hc     1   DRG    H7   66     0.090700      1.00800 ; qtot -3.612
    67   hc     1   DRG    H8   67     0.083700      1.00800 ; qtot -3.528
    68   hc     1   DRG    H9   68     0.083700      1.00800 ; qtot -3.444
    69   hc     1   DRG   H10   69     0.101700      1.00800 ; qtot -3.342
    70   hc     1   DRG   H11   70     0.041367      1.00800 ; qtot -3.301
    71   hc     1   DRG   H12   71     0.041367      1.00800 ; qtot -3.260
    72   hc     1   DRG   H13   72     0.041367      1.00800 ; qtot -3.218
    73   h1     1   DRG   H14   73     0.073200      1.00800 ; qtot -3.145
    74   h1     1   DRG   H15   74     0.073200      1.00800 ; qtot -3.072
    75   h1     1   DRG   H16   75     0.076200      1.00800 ; qtot -2.996
    76   h1     1   DRG   H17   76     0.076200      1.00800 ; qtot -2.919
    77   hc     1   DRG   H18   77     0.058200      1.00800 ; qtot -2.861
    78   hc     1   DRG   H19   78     0.058200      1.00800 ; qtot -2.803
    79   hc     1   DRG   H20   79     0.061700      1.00800 ; qtot -2.741
    80   hc     1   DRG   H21   80     0.061700      1.00800 ; qtot -2.680
    81   h1     1   DRG   H22   81     0.115700      1.00800 ; qtot -2.564
    82   h1     1   DRG   H23   82     0.074700      1.00800 ; qtot -2.489
    83   h1     1   DRG   H24   83     0.074700      1.00800 ; qtot -2.415
    84   hc     1   DRG   H25   84     0.039867      1.00800 ; qtot -2.375
    85   hc     1   DRG   H26   85     0.039867      1.00800 ; qtot -2.335
    86   hc     1   DRG   H27   86     0.039867      1.00800 ; qtot -2.295
    87   hc     1   DRG   H28   87     0.039867      1.00800 ; qtot -2.255
    88   hc     1   DRG   H29   88     0.039867      1.00800 ; qtot -2.215
    89   hc     1   DRG   H30   89     0.039867      1.00800 ; qtot -2.175
    90   hc     1   DRG   H31   90     0.053700      1.00800 ; qtot -2.122
    91   hc     1   DRG   H32   91     0.053700      1.00800 ; qtot -2.068
    92   h4     1   DRG   H33   92     0.027100      1.00800 ; qtot -2.041
    93   ha     1   DRG   H34   93     0.150000      1.00800 ; qtot -1.891
    94   h1     1   DRG   H35   94     0.046450      1.00800 ; qtot -1.844
    95   h1     1   DRG   H36   95     0.046450      1.00800 ; qtot -1.798
    96   h1     1   DRG   H37   96     0.040950      1.00800 ; qtot -1.757
    97   h1     1   DRG   H38   97     0.040950      1.00800 ; qtot -1.716
    98   h1     1   DRG   H39   98     0.034033      1.00800 ; qtot -1.682
    99   h1     1   DRG   H40   99     0.034033      1.00800 ; qtot -1.648
   100   h1     1   DRG   H41  100     0.034033      1.00800 ; qtot -1.614
   101   h1     1   DRG   H42  101     0.040950      1.00800 ; qtot -1.573
   102   h1     1   DRG   H43  102     0.040950      1.00800 ; qtot -1.532
   103   h1     1   DRG   H44  103     0.046450      1.00800 ; qtot -1.486
   104   h1     1   DRG   H45  104     0.046450      1.00800 ; qtot -1.439
   105   h1     1   DRG   H46  105     0.054700      1.00800 ; qtot -1.384
   106   hc     1   DRG   H47  106     0.049700      1.00800 ; qtot -1.335
   107   hc     1   DRG   H48  107     0.049700      1.00800 ; qtot -1.285
   108   hc     1   DRG   H49  108     0.049700      1.00800 ; qtot -1.235
   109   h1     1   DRG   H50  109     0.034033      1.00800 ; qtot -1.201
   110   h1     1   DRG   H51  110     0.034033      1.00800 ; qtot -1.167
   111   h1     1   DRG   H52  111     0.034033      1.00800 ; qtot -1.133
   112   ha     1   DRG   H53  112     0.166000      1.00800 ; qtot -0.967
   113   ha     1   DRG   H54  113     0.130000      1.00800 ; qtot -0.837
   114   ha     1   DRG   H55  114     0.134000      1.00800 ; qtot -0.703
   115   hn     1   DRG   H56  115     0.316500      1.00800 ; qtot -0.387
   116   hn     1   DRG   H57  116     0.386800      1.00800 ; qtot -0.000

[ bonds ]
;   ai     aj funct   r             k
     1     12   1    1.5354e-01    1.9154e+05 ;      C - C11   
     1     59   1    1.0962e-01    2.8891e+05 ;      C - H     
     1     60   1    1.0962e-01    2.8891e+05 ;      C - H1    
     1     61   1    1.0962e-01    2.8891e+05 ;      C - H2    
     2     44   1    1.3730e-01    3.2321e+05 ;     C1 - C43   
     2     58   1    1.7538e-01    1.9385e+05 ;     C1 - S     
     2     62   1    1.0809e-01    3.0854e+05 ;     C1 - H3    
     3      4   1    1.5002e-01    2.1350e+05 ;     C2 - C3    
     3     52   1    1.3158e-01    3.5122e+05 ;     C2 - N7    
     3     58   1    1.7538e-01    1.9385e+05 ;     C2 - S     
     4      5   1    1.5354e-01    1.9154e+05 ;     C3 - C4    
     4     63   1    1.0962e-01    2.8891e+05 ;     C3 - H4    
     4     64   1    1.0962e-01    2.8891e+05 ;     C3 - H5    
     5     11   1    1.5270e-01    1.9652e+05 ;     C4 - C10   
     5     46   1    1.4556e-01    2.1896e+05 ;     C4 - N1    
     5     65   1    1.0969e-01    2.8804e+05 ;     C4 - H6    
     6      7   1    1.5035e-01    2.1132e+05 ;     C5 - C6    
     6     46   1    1.3798e-01    2.8122e+05 ;     C5 - N1    
     6     53   1    1.2190e-01    4.9421e+05 ;     C5 - O     
     7      8   1    1.5082e-01    2.0825e+05 ;     C6 - C7    
     7      9   1    1.5082e-01    2.0825e+05 ;     C6 - C8    
     7     66   1    1.0865e-01    3.0117e+05 ;     C6 - H7    
     8      9   1    1.5082e-01    2.0825e+05 ;     C7 - C8    
     8     67   1    1.0865e-01    3.0117e+05 ;     C7 - H8    
     8     68   1    1.0865e-01    3.0117e+05 ;     C7 - H9    
     9     10   1    1.5174e-01    2.0241e+05 ;     C8 - C9    
     9     69   1    1.0865e-01    3.0117e+05 ;     C8 - H10   
    10     70   1    1.0962e-01    2.8891e+05 ;     C9 - H11   
    10     71   1    1.0962e-01    2.8891e+05 ;     C9 - H12   
    10     72   1    1.0962e-01    2.8891e+05 ;     C9 - H13   
    11     47   1    1.3967e-01    2.6565e+05 ;    C10 - N2    
    11     54   1    1.2190e-01    4.9421e+05 ;    C10 - O1    
    12     45   1    1.4639e-01    2.1321e+05 ;    C11 - N     
    12     73   1    1.0969e-01    2.8804e+05 ;    C11 - H14   
    12     74   1    1.0969e-01    2.8804e+05 ;    C11 - H15   
    13     14   1    1.5384e-01    1.8979e+05 ;    C12 - C13   
    13     47   1    1.4669e-01    2.1117e+05 ;    C12 - N2    
    13     75   1    1.0984e-01    2.8620e+05 ;    C12 - H16   
    13     76   1    1.0984e-01    2.8620e+05 ;    C12 - H17   
    14     15   1    1.5384e-01    1.8979e+05 ;    C13 - C14   
    14     77   1    1.0979e-01    2.8681e+05 ;    C13 - H18   
    14     78   1    1.0979e-01    2.8681e+05 ;    C13 - H19   
    15     16   1    1.5384e-01    1.8979e+05 ;    C14 - C15   
    15     79   1    1.0979e-01    2.8681e+05 ;    C14 - H20   
    15     80   1    1.0979e-01    2.8681e+05 ;    C14 - H21   
    16     17   1    1.5287e-01    1.9550e+05 ;    C15 - C16   
    16     48   1    1.4653e-01    2.1225e+05 ;    C15 - N3    
    16     81   1    1.0984e-01    2.8620e+05 ;    C15 - H22   
    17     55   1    1.2190e-01    4.9421e+05 ;    C16 - O2    
    17     56   1    1.3621e-01    2.9398e+05 ;    C16 - O3    
    18     19   1    1.5354e-01    1.9154e+05 ;    C17 - C18   
    18     56   1    1.4273e-01    2.3620e+05 ;    C17 - O3    
    18     82   1    1.0969e-01    2.8804e+05 ;    C17 - H23   
    18     83   1    1.0969e-01    2.8804e+05 ;    C17 - H24   
    19     20   1    1.5354e-01    1.9154e+05 ;    C18 - C19   
    19     21   1    1.5354e-01    1.9154e+05 ;    C18 - C20   
    19     22   1    1.5354e-01    1.9154e+05 ;    C18 - C21   
    20     84   1    1.0962e-01    2.8891e+05 ;    C19 - H25   
    20     85   1    1.0962e-01    2.8891e+05 ;    C19 - H26   
    20     86   1    1.0962e-01    2.8891e+05 ;    C19 - H27   
    21     87   1    1.0962e-01    2.8891e+05 ;    C20 - H28   
    21     88   1    1.0962e-01    2.8891e+05 ;    C20 - H29   
    21     89   1    1.0962e-01    2.8891e+05 ;    C20 - H30   
    22     24   1    1.5018e-01    2.1244e+05 ;    C21 - C23   
    22     90   1    1.0962e-01    2.8891e+05 ;    C21 - H31   
    22     91   1    1.0962e-01    2.8891e+05 ;    C21 - H32   
    23     34   1    1.3986e-01    2.9644e+05 ;    C22 - C33   
    23     43   1    1.3986e-01    2.9644e+05 ;    C22 - C42   
    23     45   1    1.3858e-01    2.7557e+05 ;    C22 - N     
    24     25   1    1.3730e-01    3.2321e+05 ;    C23 - C24   
    24     34   1    1.4610e-01    2.4166e+05 ;    C23 - C33   
    25     26   1    1.4528e-01    2.4811e+05 ;    C24 - C25   
    25     45   1    1.3803e-01    2.8075e+05 ;    C24 - N     
    26     27   1    1.3986e-01    2.9644e+05 ;    C25 - C26   
    26     30   1    1.3986e-01    2.9644e+05 ;    C25 - C29   
    27     37   1    1.5147e-01    2.0410e+05 ;    C26 - C36   
    27     49   1    1.3392e-01    3.2341e+05 ;    C26 - N4    
    28     29   1    1.3986e-01    2.9644e+05 ;    C27 - C28   
    28     49   1    1.3392e-01    3.2341e+05 ;    C27 - N4    
    28     92   1    1.0885e-01    2.9859e+05 ;    C27 - H33   
    29     30   1    1.3986e-01    2.9644e+05 ;    C28 - C29   
    29     50   1    1.4030e-01    2.6011e+05 ;    C28 - N5    
    30     93   1    1.0860e-01    3.0183e+05 ;    C29 - H34   
    31     32   1    1.5384e-01    1.8979e+05 ;    C30 - C31   
    31     50   1    1.4662e-01    2.1164e+05 ;    C30 - N5    
    31     94   1    1.0984e-01    2.8620e+05 ;    C30 - H35   
    31     95   1    1.0984e-01    2.8620e+05 ;    C30 - H36   
    32     51   1    1.4657e-01    2.1199e+05 ;    C31 - N6    
    32     96   1    1.0984e-01    2.8620e+05 ;    C31 - H37   
    32     97   1    1.0984e-01    2.8620e+05 ;    C31 - H38   
    33     51   1    1.4626e-01    2.1410e+05 ;    C32 - N6    
    33     98   1    1.0969e-01    2.8804e+05 ;    C32 - H39   
    33     99   1    1.0969e-01    2.8804e+05 ;    C32 - H40   
    33    100   1    1.0969e-01    2.8804e+05 ;    C32 - H41   
    34     40   1    1.3986e-01    2.9644e+05 ;    C33 - C39   
    35     36   1    1.5384e-01    1.8979e+05 ;    C34 - C35   
    35     51   1    1.4657e-01    2.1199e+05 ;    C34 - N6    
    35    101   1    1.0984e-01    2.8620e+05 ;    C34 - H42   
    35    102   1    1.0984e-01    2.8620e+05 ;    C34 - H43   
    36     50   1    1.4662e-01    2.1164e+05 ;    C35 - N5    
    36    103   1    1.0984e-01    2.8620e+05 ;    C35 - H44   
    36    104   1    1.0984e-01    2.8620e+05 ;    C35 - H45   
    37     38   1    1.5354e-01    1.9154e+05 ;    C36 - C37   
    37     57   1    1.4273e-01    2.3620e+05 ;    C36 - O4    
    37    105   1    1.0969e-01    2.8804e+05 ;    C36 - H46   
    38    106   1    1.0962e-01    2.8891e+05 ;    C37 - H47   
    38    107   1    1.0962e-01    2.8891e+05 ;    C37 - H48   
    38    108   1    1.0962e-01    2.8891e+05 ;    C37 - H49   
    39     57   1    1.4273e-01    2.3620e+05 ;    C38 - O4    
    39    109   1    1.0969e-01    2.8804e+05 ;    C38 - H50   
    39    110   1    1.0969e-01    2.8804e+05 ;    C38 - H51   
    39    111   1    1.0969e-01    2.8804e+05 ;    C38 - H52   
    40     41   1    1.3986e-01    2.9644e+05 ;    C39 - C40   
    40    112   1    1.0860e-01    3.0183e+05 ;    C39 - H53   
    41     42   1    1.3986e-01    2.9644e+05 ;    C40 - C41   
    41     44   1    1.4610e-01    2.4166e+05 ;    C40 - C43   
    42     43   1    1.3986e-01    2.9644e+05 ;    C41 - C42   
    42    113   1    1.0860e-01    3.0183e+05 ;    C41 - H54   
    43    114   1    1.0860e-01    3.0183e+05 ;    C42 - H55   
    44     52   1    1.3713e-01    2.8947e+05 ;    C43 - N7    
    46    115   1    1.0132e-01    3.9630e+05 ;     N1 - H56   
    47     48   1    1.4233e-01    1.9440e+05 ;     N2 - N3    
    48    116   1    1.0195e-01    3.8497e+05 ;     N3 - H57   

[ pairs ]
;   ai     aj    funct
     1     23      1 ;      C - C22   
     1     25      1 ;      C - C24   
     2      4      1 ;     C1 - C3    
     2     40      1 ;     C1 - C39   
     2     42      1 ;     C1 - C41   
     3     11      1 ;     C2 - C10   
     3     41      1 ;     C2 - C40   
     3     46      1 ;     C2 - N1    
     3     62      1 ;     C2 - H3    
     3     65      1 ;     C2 - H6    
     4      6      1 ;     C3 - C5    
     4     44      1 ;     C3 - C43   
     4     47      1 ;     C3 - N2    
     4     54      1 ;     C3 - O1    
     4    115      1 ;     C3 - H56   
     5      7      1 ;     C4 - C6    
     5     13      1 ;     C4 - C12   
     5     48      1 ;     C4 - N3    
     5     52      1 ;     C4 - N7    
     5     53      1 ;     C4 - O     
     5     58      1 ;     C4 - S     
     6     10      1 ;     C5 - C9    
     6     11      1 ;     C5 - C10   
     6     65      1 ;     C5 - H6    
     6     67      1 ;     C5 - H8    
     6     68      1 ;     C5 - H9    
     6     69      1 ;     C5 - H10   
     7     70      1 ;     C6 - H11   
     7     71      1 ;     C6 - H12   
     7     72      1 ;     C6 - H13   
     7    115      1 ;     C6 - H56   
     8     46      1 ;     C7 - N1    
     8     53      1 ;     C7 - O     
     8     70      1 ;     C7 - H11   
     8     71      1 ;     C7 - H12   
     8     72      1 ;     C7 - H13   
     9     46      1 ;     C8 - N1    
     9     53      1 ;     C8 - O     
    10     66      1 ;     C9 - H7    
    10     67      1 ;     C9 - H8    
    10     68      1 ;     C9 - H9    
    11     14      1 ;    C10 - C13   
    11     16      1 ;    C10 - C15   
    11     63      1 ;    C10 - H4    
    11     64      1 ;    C10 - H5    
    11     75      1 ;    C10 - H16   
    11     76      1 ;    C10 - H17   
    11    115      1 ;    C10 - H56   
    11    116      1 ;    C10 - H57   
    12     24      1 ;    C11 - C23   
    12     26      1 ;    C11 - C25   
    12     34      1 ;    C11 - C33   
    12     43      1 ;    C11 - C42   
    13     16      1 ;    C12 - C15   
    13     54      1 ;    C12 - O1    
    13     79      1 ;    C12 - H20   
    13     80      1 ;    C12 - H21   
    13    116      1 ;    C12 - H57   
    14     17      1 ;    C13 - C16   
    14     48      1 ;    C13 - N3    
    14     81      1 ;    C13 - H22   
    15     47      1 ;    C14 - N2    
    15     55      1 ;    C14 - O2    
    15     56      1 ;    C14 - O3    
    15     75      1 ;    C14 - H16   
    15     76      1 ;    C14 - H17   
    15    116      1 ;    C14 - H57   
    16     18      1 ;    C15 - C17   
    16     77      1 ;    C15 - H18   
    16     78      1 ;    C15 - H19   
    17     19      1 ;    C16 - C18   
    17     47      1 ;    C16 - N2    
    17     79      1 ;    C16 - H20   
    17     80      1 ;    C16 - H21   
    17     82      1 ;    C16 - H23   
    17     83      1 ;    C16 - H24   
    17    116      1 ;    C16 - H57   
    18     24      1 ;    C17 - C23   
    18     55      1 ;    C17 - O2    
    18     84      1 ;    C17 - H25   
    18     85      1 ;    C17 - H26   
    18     86      1 ;    C17 - H27   
    18     87      1 ;    C17 - H28   
    18     88      1 ;    C17 - H29   
    18     89      1 ;    C17 - H30   
    18     90      1 ;    C17 - H31   
    18     91      1 ;    C17 - H32   
    19     25      1 ;    C18 - C24   
    19     34      1 ;    C18 - C33   
    20     24      1 ;    C19 - C23   
    20     56      1 ;    C19 - O3    
    20     82      1 ;    C19 - H23   
    20     83      1 ;    C19 - H24   
    20     87      1 ;    C19 - H28   
    20     88      1 ;    C19 - H29   
    20     89      1 ;    C19 - H30   
    20     90      1 ;    C19 - H31   
    20     91      1 ;    C19 - H32   
    21     24      1 ;    C20 - C23   
    21     56      1 ;    C20 - O3    
    21     82      1 ;    C20 - H23   
    21     83      1 ;    C20 - H24   
    21     84      1 ;    C20 - H25   
    21     85      1 ;    C20 - H26   
    21     86      1 ;    C20 - H27   
    21     90      1 ;    C20 - H31   
    21     91      1 ;    C20 - H32   
    22     23      1 ;    C21 - C22   
    22     26      1 ;    C21 - C25   
    22     40      1 ;    C21 - C39   
    22     45      1 ;    C21 - N     
    22     56      1 ;    C21 - O3    
    22     82      1 ;    C21 - H23   
    22     83      1 ;    C21 - H24   
    22     84      1 ;    C21 - H25   
    22     85      1 ;    C21 - H26   
    22     86      1 ;    C21 - H27   
    22     87      1 ;    C21 - H28   
    22     88      1 ;    C21 - H29   
    22     89      1 ;    C21 - H30   
    23     26      1 ;    C22 - C25   
    23     41      1 ;    C22 - C40   
    23     73      1 ;    C22 - H14   
    23     74      1 ;    C22 - H15   
    23    112      1 ;    C22 - H53   
    23    113      1 ;    C22 - H54   
    24     27      1 ;    C23 - C26   
    24     30      1 ;    C23 - C29   
    24     41      1 ;    C23 - C40   
    24     43      1 ;    C23 - C42   
    24    112      1 ;    C23 - H53   
    25     29      1 ;    C24 - C28   
    25     37      1 ;    C24 - C36   
    25     40      1 ;    C24 - C39   
    25     43      1 ;    C24 - C42   
    25     49      1 ;    C24 - N4    
    25     73      1 ;    C24 - H14   
    25     74      1 ;    C24 - H15   
    25     90      1 ;    C24 - H31   
    25     91      1 ;    C24 - H32   
    25     93      1 ;    C24 - H34   
    26     28      1 ;    C25 - C27   
    26     34      1 ;    C25 - C33   
    26     38      1 ;    C25 - C37   
    26     50      1 ;    C25 - N5    
    26     57      1 ;    C25 - O4    
    26    105      1 ;    C25 - H46   
    27     29      1 ;    C26 - C28   
    27     39      1 ;    C26 - C38   
    27     45      1 ;    C26 - N     
    27     92      1 ;    C26 - H33   
    27     93      1 ;    C26 - H34   
    27    106      1 ;    C26 - H47   
    27    107      1 ;    C26 - H48   
    27    108      1 ;    C26 - H49   
    28     31      1 ;    C27 - C30   
    28     36      1 ;    C27 - C35   
    28     37      1 ;    C27 - C36   
    28     93      1 ;    C27 - H34   
    29     32      1 ;    C28 - C31   
    29     35      1 ;    C28 - C34   
    29     94      1 ;    C28 - H35   
    29     95      1 ;    C28 - H36   
    29    103      1 ;    C28 - H44   
    29    104      1 ;    C28 - H45   
    30     31      1 ;    C29 - C30   
    30     36      1 ;    C29 - C35   
    30     37      1 ;    C29 - C36   
    30     45      1 ;    C29 - N     
    30     49      1 ;    C29 - N4    
    30     92      1 ;    C29 - H33   
    31     33      1 ;    C30 - C32   
    31     35      1 ;    C30 - C34   
    31    103      1 ;    C30 - H44   
    31    104      1 ;    C30 - H45   
    32     36      1 ;    C31 - C35   
    32     98      1 ;    C31 - H39   
    32     99      1 ;    C31 - H40   
    32    100      1 ;    C31 - H41   
    32    101      1 ;    C31 - H42   
    32    102      1 ;    C31 - H43   
    33     36      1 ;    C32 - C35   
    33     96      1 ;    C32 - H37   
    33     97      1 ;    C32 - H38   
    33    101      1 ;    C32 - H42   
    33    102      1 ;    C32 - H43   
    34     42      1 ;    C33 - C41   
    34     44      1 ;    C33 - C43   
    34     90      1 ;    C33 - H31   
    34     91      1 ;    C33 - H32   
    34    114      1 ;    C33 - H55   
    35     96      1 ;    C34 - H37   
    35     97      1 ;    C34 - H38   
    35     98      1 ;    C34 - H39   
    35     99      1 ;    C34 - H40   
    35    100      1 ;    C34 - H41   
    36     94      1 ;    C35 - H35   
    36     95      1 ;    C35 - H36   
    37    109      1 ;    C36 - H50   
    37    110      1 ;    C36 - H51   
    37    111      1 ;    C36 - H52   
    38     39      1 ;    C37 - C38   
    38     49      1 ;    C37 - N4    
    39    105      1 ;    C38 - H46   
    40     43      1 ;    C39 - C42   
    40     45      1 ;    C39 - N     
    40     52      1 ;    C39 - N7    
    40    113      1 ;    C39 - H54   
    41     58      1 ;    C40 - S     
    41     62      1 ;    C40 - H3    
    41    114      1 ;    C40 - H55   
    42     45      1 ;    C41 - N     
    42     52      1 ;    C41 - N7    
    42    112      1 ;    C41 - H53   
    43     44      1 ;    C42 - C43   
    44    112      1 ;    C43 - H53   
    44    113      1 ;    C43 - H54   
    45    114      1 ;      N - H55   
    46     47      1 ;     N1 - N2    
    46     54      1 ;     N1 - O1    
    46     63      1 ;     N1 - H4    
    46     64      1 ;     N1 - H5    
    46     66      1 ;     N1 - H7    
    47     65      1 ;     N2 - H6    
    47     77      1 ;     N2 - H18   
    47     78      1 ;     N2 - H19   
    47     81      1 ;     N2 - H22   
    48     54      1 ;     N3 - O1    
    48     55      1 ;     N3 - O2    
    48     56      1 ;     N3 - O3    
    48     75      1 ;     N3 - H16   
    48     76      1 ;     N3 - H17   
    48     79      1 ;     N3 - H20   
    48     80      1 ;     N3 - H21   
    49     50      1 ;     N4 - N5    
    49     57      1 ;     N4 - O4    
    49    105      1 ;     N4 - H46   
    50     51      1 ;     N5 - N6    
    50     92      1 ;     N5 - H33   
    50     93      1 ;     N5 - H34   
    50     96      1 ;     N5 - H37   
    50     97      1 ;     N5 - H38   
    50    101      1 ;     N5 - H42   
    50    102      1 ;     N5 - H43   
    51     94      1 ;     N6 - H35   
    51     95      1 ;     N6 - H36   
    51    103      1 ;     N6 - H44   
    51    104      1 ;     N6 - H45   
    52     62      1 ;     N7 - H3    
    52     63      1 ;     N7 - H4    
    52     64      1 ;     N7 - H5    
    53     66      1 ;      O - H7    
    53    115      1 ;      O - H56   
    54     65      1 ;     O1 - H6    
    55     81      1 ;     O2 - H22   
    56     81      1 ;     O3 - H22   
    57    106      1 ;     O4 - H47   
    57    107      1 ;     O4 - H48   
    57    108      1 ;     O4 - H49   
    58     63      1 ;      S - H4    
    58     64      1 ;      S - H5    
    59     45      1 ;      H - N     
    59     73      1 ;      H - H14   
    59     74      1 ;      H - H15   
    60     45      1 ;     H1 - N     
    60     73      1 ;     H1 - H14   
    60     74      1 ;     H1 - H15   
    61     45      1 ;     H2 - N     
    61     73      1 ;     H2 - H14   
    61     74      1 ;     H2 - H15   
    63     65      1 ;     H4 - H6    
    64     65      1 ;     H5 - H6    
    65    115      1 ;     H6 - H56   
    66     67      1 ;     H7 - H8    
    66     68      1 ;     H7 - H9    
    66     69      1 ;     H7 - H10   
    67     69      1 ;     H8 - H10   
    68     69      1 ;     H9 - H10   
    69     70      1 ;    H10 - H11   
    69     71      1 ;    H10 - H12   
    69     72      1 ;    H10 - H13   
    75     77      1 ;    H16 - H18   
    75     78      1 ;    H16 - H19   
    76     77      1 ;    H17 - H18   
    76     78      1 ;    H17 - H19   
    77     79      1 ;    H18 - H20   
    77     80      1 ;    H18 - H21   
    78     79      1 ;    H19 - H20   
    78     80      1 ;    H19 - H21   
    79     81      1 ;    H20 - H22   
    80     81      1 ;    H21 - H22   
    81    116      1 ;    H22 - H57   
    94     96      1 ;    H35 - H37   
    94     97      1 ;    H35 - H38   
    95     96      1 ;    H36 - H37   
    95     97      1 ;    H36 - H38   
   101    103      1 ;    H42 - H44   
   101    104      1 ;    H42 - H45   
   102    103      1 ;    H43 - H44   
   102    104      1 ;    H43 - H45   
   105    106      1 ;    H46 - H47   
   105    107      1 ;    H46 - H48   
   105    108      1 ;    H46 - H49   
   113    114      1 ;    H54 - H55   

[ angles ]
;   ai     aj     ak    funct   theta         cth
     1     12     45      1    1.1263e+02    5.4392e+02 ;      C - C11    - N     
     1     12     73      1    1.0959e+02    3.6217e+02 ;      C - C11    - H14   
     1     12     74      1    1.0959e+02    3.6217e+02 ;      C - C11    - H15   
     2     44     41      1    1.2429e+02    5.1580e+02 ;     C1 - C43    - C40   
     2     44     52      1    1.1158e+02    5.9789e+02 ;     C1 - C43    - N7    
     2     58      3      1    9.0360e+01    8.5471e+02 ;     C1 - S      - C2    
     3      4      5      1    1.1296e+02    5.0593e+02 ;     C2 - C3     - C4    
     3      4     63      1    1.1036e+02    3.6853e+02 ;     C2 - C3     - H4    
     3      4     64      1    1.1036e+02    3.6853e+02 ;     C2 - C3     - H5    
     3     52     44      1    1.0537e+02    7.3094e+02 ;     C2 - N7     - C43   
     4      3     52      1    1.2387e+02    5.4836e+02 ;     C3 - C2     - N7    
     4      3     58      1    1.2135e+02    5.2267e+02 ;     C3 - C2     - S     
     4      5     11      1    1.1143e+02    5.0509e+02 ;     C3 - C4     - C10   
     4      5     46      1    1.1169e+02    5.4752e+02 ;     C3 - C4     - N1    
     4      5     65      1    1.0959e+02    3.6217e+02 ;     C3 - C4     - H6    
     5      4     63      1    1.0968e+02    3.6208e+02 ;     C4 - C3     - H4    
     5      4     64      1    1.0968e+02    3.6208e+02 ;     C4 - C3     - H5    
     5     11     47      1    1.1716e+02    5.4551e+02 ;     C4 - C10    - N2    
     5     11     54      1    1.2290e+02    6.3973e+02 ;     C4 - C10    - O1    
     5     46      6      1    1.2196e+02    6.4350e+02 ;     C4 - N1     - C5    
     5     46    115      1    1.1742e+02    4.5706e+02 ;     C4 - N1     - H56   
     6      7      8      1    1.1799e+02    4.9915e+02 ;     C5 - C6     - C7    
     6      7      9      1    1.1799e+02    4.9915e+02 ;     C5 - C6     - C8    
     6      7     66      1    1.1663e+02    3.5815e+02 ;     C5 - C6     - H7    
     6     46    115      1    1.1726e+02    4.8007e+02 ;     C5 - N1     - H56   
     7      6     46      1    1.1445e+02    5.5982e+02 ;     C6 - C5     - N1    
     7      6     53      1    1.2272e+02    6.4785e+02 ;     C6 - C5     - O     
     7      8      9      1    6.0000e+01    6.9881e+02 ;     C6 - C7     - C8    
     7      8     67      1    1.1769e+02    3.5556e+02 ;     C6 - C7     - H8    
     7      8     68      1    1.1769e+02    3.5556e+02 ;     C6 - C7     - H9    
     7      9      8      1    6.0000e+01    6.9881e+02 ;     C6 - C8     - C7    
     7      9     10      1    1.2076e+02    4.9112e+02 ;     C6 - C8     - C9    
     7      9     69      1    1.1769e+02    3.5556e+02 ;     C6 - C8     - H10   
     8      7      9      1    6.0000e+01    6.9881e+02 ;     C7 - C6     - C8    
     8      7     66      1    1.1769e+02    3.5556e+02 ;     C7 - C6     - H7    
     8      9     10      1    1.2076e+02    4.9112e+02 ;     C7 - C8     - C9    
     8      9     69      1    1.1769e+02    3.5556e+02 ;     C7 - C8     - H10   
     9      7     66      1    1.1769e+02    3.5556e+02 ;     C8 - C6     - H7    
     9      8     67      1    1.1769e+02    3.5556e+02 ;     C8 - C7     - H8    
     9      8     68      1    1.1769e+02    3.5556e+02 ;     C8 - C7     - H9    
     9     10     70      1    1.1034e+02    3.6484e+02 ;     C8 - C9     - H11   
     9     10     71      1    1.1034e+02    3.6484e+02 ;     C8 - C9     - H12   
     9     10     72      1    1.1034e+02    3.6484e+02 ;     C8 - C9     - H13   
    10      9     69      1    1.1372e+02    3.5974e+02 ;     C9 - C8     - H10   
    11      5     46      1    1.0794e+02    5.5873e+02 ;    C10 - C4     - N1    
    11      5     65      1    1.0837e+02    3.6602e+02 ;    C10 - C4     - H6    
    11     47     13      1    1.2047e+02    6.4124e+02 ;    C10 - N2     - C12   
    11     47     48      1    1.2080e+02    6.9103e+02 ;    C10 - N2     - N3    
    12      1     59      1    1.0968e+02    3.6208e+02 ;    C11 - C      - H     
    12      1     60      1    1.0968e+02    3.6208e+02 ;    C11 - C      - H1    
    12      1     61      1    1.0968e+02    3.6208e+02 ;    C11 - C      - H2    
    12     45     23      1    1.2050e+02    6.4408e+02 ;    C11 - N      - C22   
    12     45     25      1    1.2665e+02    6.2936e+02 ;    C11 - N      - C24   
    13     14     15      1    1.1106e+02    5.0359e+02 ;    C12 - C13    - C14   
    13     14     77      1    1.0945e+02    3.6175e+02 ;    C12 - C13    - H18   
    13     14     78      1    1.0945e+02    3.6175e+02 ;    C12 - C13    - H19   
    13     47     48      1    1.1436e+02    6.9622e+02 ;    C12 - N2     - N3    
    14     13     47      1    1.1117e+02    5.4635e+02 ;    C13 - C12    - N2    
    14     13     75      1    1.0918e+02    3.6217e+02 ;    C13 - C12    - H16   
    14     13     76      1    1.0918e+02    3.6217e+02 ;    C13 - C12    - H17   
    14     15     16      1    1.1106e+02    5.0359e+02 ;    C13 - C14    - C15   
    14     15     79      1    1.0945e+02    3.6175e+02 ;    C13 - C14    - H20   
    14     15     80      1    1.0945e+02    3.6175e+02 ;    C13 - C14    - H21   
    15     14     77      1    1.0945e+02    3.6175e+02 ;    C14 - C13    - H18   
    15     14     78      1    1.0945e+02    3.6175e+02 ;    C14 - C13    - H19   
    15     16     17      1    1.1143e+02    5.0434e+02 ;    C14 - C15    - C16   
    15     16     48      1    1.1083e+02    5.4752e+02 ;    C14 - C15    - N3    
    15     16     81      1    1.0918e+02    3.6217e+02 ;    C14 - C15    - H22   
    16     15     79      1    1.0945e+02    3.6175e+02 ;    C15 - C14    - H20   
    16     15     80      1    1.0945e+02    3.6175e+02 ;    C15 - C14    - H21   
    16     17     55      1    1.2234e+02    6.4065e+02 ;    C15 - C16    - O2    
    16     17     56      1    1.1313e+02    6.4517e+02 ;    C15 - C16    - O3    
    16     48     47      1    1.1329e+02    6.9638e+02 ;    C15 - N3     - N2    
    16     48    116      1    1.0926e+02    4.7070e+02 ;    C15 - N3     - H57   
    17     16     48      1    1.0875e+02    5.5463e+02 ;    C16 - C15    - N3    
    17     16     81      1    1.0701e+02    3.6794e+02 ;    C16 - C15    - H22   
    17     56     18      1    1.1582e+02    7.4835e+02 ;    C16 - O3     - C17   
    18     19     20      1    1.1263e+02    5.0099e+02 ;    C17 - C18    - C19   
    18     19     21      1    1.1263e+02    5.0099e+02 ;    C17 - C18    - C20   
    18     19     22      1    1.1263e+02    5.0099e+02 ;    C17 - C18    - C21   
    19     18     56      1    1.0762e+02    6.4802e+02 ;    C18 - C17    - O3    
    19     18     82      1    1.0959e+02    3.6217e+02 ;    C18 - C17    - H23   
    19     18     83      1    1.0959e+02    3.6217e+02 ;    C18 - C17    - H24   
    19     20     84      1    1.0968e+02    3.6208e+02 ;    C18 - C19    - H25   
    19     20     85      1    1.0968e+02    3.6208e+02 ;    C18 - C19    - H26   
    19     20     86      1    1.0968e+02    3.6208e+02 ;    C18 - C19    - H27   
    19     21     87      1    1.0968e+02    3.6208e+02 ;    C18 - C20    - H28   
    19     21     88      1    1.0968e+02    3.6208e+02 ;    C18 - C20    - H29   
    19     21     89      1    1.0968e+02    3.6208e+02 ;    C18 - C20    - H30   
    19     22     24      1    1.1267e+02    5.0635e+02 ;    C18 - C21    - C23   
    19     22     90      1    1.0968e+02    3.6208e+02 ;    C18 - C21    - H31   
    19     22     91      1    1.0968e+02    3.6208e+02 ;    C18 - C21    - H32   
    20     19     21      1    1.1263e+02    5.0099e+02 ;    C19 - C18    - C20   
    20     19     22      1    1.1263e+02    5.0099e+02 ;    C19 - C18    - C21   
    21     19     22      1    1.1263e+02    5.0099e+02 ;    C20 - C18    - C21   
    22     24     25      1    1.2668e+02    5.0258e+02 ;    C21 - C23    - C24   
    22     24     34      1    1.2613e+02    4.9053e+02 ;    C21 - C23    - C33   
    23     34     24      1    1.2083e+02    5.1898e+02 ;    C22 - C33    - C23   
    23     34     40      1    1.2002e+02    5.3279e+02 ;    C22 - C33    - C39   
    23     43     42      1    1.2002e+02    5.3279e+02 ;    C22 - C42    - C41   
    23     43    114      1    1.1988e+02    3.7572e+02 ;    C22 - C42    - H55   
    23     45     25      1    1.1732e+02    6.7354e+02 ;    C22 - N      - C24   
    24     22     90      1    1.1062e+02    3.6777e+02 ;    C23 - C21    - H31   
    24     22     91      1    1.1062e+02    3.6777e+02 ;    C23 - C21    - H32   
    24     25     26      1    1.1603e+02    5.3555e+02 ;    C23 - C24    - C25   
    24     25     45      1    1.0675e+02    6.0927e+02 ;    C23 - C24    - N     
    24     34     40      1    1.2083e+02    5.1898e+02 ;    C23 - C33    - C39   
    25     24     34      1    1.2429e+02    5.1580e+02 ;    C24 - C23    - C33   
    25     26     27      1    1.2091e+02    5.2041e+02 ;    C24 - C25    - C26   
    25     26     30      1    1.2091e+02    5.2041e+02 ;    C24 - C25    - C29   
    26     25     45      1    1.2180e+02    5.5363e+02 ;    C25 - C24    - N     
    26     27     37      1    1.2083e+02    5.0827e+02 ;    C25 - C26    - C36   
    26     27     49      1    1.2294e+02    5.7045e+02 ;    C25 - C26    - N4    
    26     30     29      1    1.2002e+02    5.3279e+02 ;    C25 - C29    - C28   
    26     30     93      1    1.1988e+02    3.7572e+02 ;    C25 - C29    - H34   
    27     26     30      1    1.2002e+02    5.3279e+02 ;    C26 - C25    - C29   
    27     37     38      1    1.1242e+02    5.0484e+02 ;    C26 - C36    - C37   
    27     37     57      1    1.0888e+02    6.4936e+02 ;    C26 - C36    - O4    
    27     37    105      1    1.0960e+02    3.6660e+02 ;    C26 - C36    - H46   
    27     49     28      1    1.1724e+02    6.9580e+02 ;    C26 - N4     - C27   
    28     29     30      1    1.2002e+02    5.3279e+02 ;    C27 - C28    - C29   
    28     29     50      1    1.2113e+02    5.6216e+02 ;    C27 - C28    - N5    
    29     28     49      1    1.2294e+02    5.7045e+02 ;    C28 - C27    - N4    
    29     28     92      1    1.2032e+02    3.7489e+02 ;    C28 - C27    - H33   
    29     30     93      1    1.1988e+02    3.7572e+02 ;    C28 - C29    - H34   
    29     50     31      1    1.1823e+02    6.4618e+02 ;    C28 - N5     - C30   
    29     50     36      1    1.1823e+02    6.4618e+02 ;    C28 - N5     - C35   
    30     29     50      1    1.2113e+02    5.6216e+02 ;    C29 - C28    - N5    
    31     32     51      1    1.1084e+02    5.4743e+02 ;    C30 - C31    - N6    
    31     32     96      1    1.0918e+02    3.6217e+02 ;    C30 - C31    - H37   
    31     32     97      1    1.0918e+02    3.6217e+02 ;    C30 - C31    - H38   
    31     50     36      1    1.1233e+02    6.4927e+02 ;    C30 - N5     - C35   
    32     31     50      1    1.1028e+02    5.4869e+02 ;    C31 - C30    - N5    
    32     31     94      1    1.0918e+02    3.6217e+02 ;    C31 - C30    - H35   
    32     31     95      1    1.0918e+02    3.6217e+02 ;    C31 - C30    - H36   
    32     51     33      1    1.1238e+02    6.5003e+02 ;    C31 - N6     - C32   
    32     51     35      1    1.1070e+02    6.5429e+02 ;    C31 - N6     - C34   
    33     51     35      1    1.1238e+02    6.5003e+02 ;    C32 - N6     - C34   
    34     23     43      1    1.2002e+02    5.3279e+02 ;    C33 - C22    - C42   
    34     23     45      1    1.2031e+02    5.6752e+02 ;    C33 - C22    - N     
    34     40     41      1    1.2002e+02    5.3279e+02 ;    C33 - C39    - C40   
    34     40    112      1    1.1988e+02    3.7572e+02 ;    C33 - C39    - H53   
    35     36     50      1    1.1028e+02    5.4869e+02 ;    C34 - C35    - N5    
    35     36    103      1    1.0918e+02    3.6217e+02 ;    C34 - C35    - H44   
    35     36    104      1    1.0918e+02    3.6217e+02 ;    C34 - C35    - H45   
    36     35     51      1    1.1084e+02    5.4743e+02 ;    C35 - C34    - N6    
    36     35    101      1    1.0918e+02    3.6217e+02 ;    C35 - C34    - H42   
    36     35    102      1    1.0918e+02    3.6217e+02 ;    C35 - C34    - H43   
    37     27     49      1    1.1664e+02    5.5815e+02 ;    C36 - C26    - N4    
    37     38    106      1    1.0968e+02    3.6208e+02 ;    C36 - C37    - H47   
    37     38    107      1    1.0968e+02    3.6208e+02 ;    C36 - C37    - H48   
    37     38    108      1    1.0968e+02    3.6208e+02 ;    C36 - C37    - H49   
    37     57     39      1    1.1360e+02    7.3915e+02 ;    C36 - O4     - C38   
    38     37     57      1    1.0762e+02    6.4802e+02 ;    C37 - C36    - O4    
    38     37    105      1    1.0959e+02    3.6217e+02 ;    C37 - C36    - H46   
    40     41     42      1    1.2002e+02    5.3279e+02 ;    C39 - C40    - C41   
    40     41     44      1    1.2083e+02    5.1898e+02 ;    C39 - C40    - C43   
    41     40    112      1    1.1988e+02    3.7572e+02 ;    C40 - C39    - H53   
    41     42     43      1    1.2002e+02    5.3279e+02 ;    C40 - C41    - C42   
    41     42    113      1    1.1988e+02    3.7572e+02 ;    C40 - C41    - H54   
    41     44     52      1    1.2062e+02    5.5614e+02 ;    C40 - C43    - N7    
    42     41     44      1    1.2083e+02    5.1898e+02 ;    C41 - C40    - C43   
    42     43    114      1    1.1988e+02    3.7572e+02 ;    C41 - C42    - H55   
    43     23     45      1    1.2031e+02    5.6752e+02 ;    C42 - C22    - N     
    43     42    113      1    1.1988e+02    3.7572e+02 ;    C42 - C41    - H54   
    44      2     58      1    1.1155e+02    5.5748e+02 ;    C43 - C1     - S     
    44      2     62      1    1.2911e+02    3.6777e+02 ;    C43 - C1     - H3    
    45     12     73      1    1.0876e+02    4.0250e+02 ;      N - C11    - H14   
    45     12     74      1    1.0876e+02    4.0250e+02 ;      N - C11    - H15   
    46      5     65      1    1.0849e+02    4.0493e+02 ;     N1 - C4     - H6    
    46      6     53      1    1.2305e+02    7.2977e+02 ;     N1 - C5     - O     
    47     11     54      1    1.2257e+02    7.2534e+02 ;     N2 - C10    - O1    
    47     13     75      1    1.0852e+02    4.0217e+02 ;     N2 - C12    - H16   
    47     13     76      1    1.0852e+02    4.0217e+02 ;     N2 - C12    - H17   
    47     48    116      1    1.0727e+02    5.1798e+02 ;     N2 - N3     - H57   
    48     16     81      1    1.0853e+02    4.0250e+02 ;     N3 - C15    - H22   
    49     28     92      1    1.1602e+02    4.1924e+02 ;     N4 - C27    - H33   
    50     31     94      1    1.0932e+02    4.0083e+02 ;     N5 - C30    - H35   
    50     31     95      1    1.0932e+02    4.0083e+02 ;     N5 - C30    - H36   
    50     36    103      1    1.0932e+02    4.0083e+02 ;     N5 - C35    - H44   
    50     36    104      1    1.0932e+02    4.0083e+02 ;     N5 - C35    - H45   
    51     32     96      1    1.0963e+02    4.0041e+02 ;     N6 - C31    - H37   
    51     32     97      1    1.0963e+02    4.0041e+02 ;     N6 - C31    - H38   
    51     33     98      1    1.1009e+02    4.0033e+02 ;     N6 - C32    - H39   
    51     33     99      1    1.1009e+02    4.0033e+02 ;     N6 - C32    - H40   
    51     33    100      1    1.1009e+02    4.0033e+02 ;     N6 - C32    - H41   
    51     35    101      1    1.0963e+02    4.0041e+02 ;     N6 - C34    - H42   
    51     35    102      1    1.0963e+02    4.0041e+02 ;     N6 - C34    - H43   
    52      3     58      1    1.1644e+02    5.8358e+02 ;     N7 - C2     - S     
    55     17     56      1    1.2320e+02    8.4734e+02 ;     O2 - C16    - O3    
    56     18     82      1    1.1034e+02    4.7028e+02 ;     O3 - C17    - H23   
    56     18     83      1    1.1034e+02    4.7028e+02 ;     O3 - C17    - H24   
    57     37    105      1    1.1034e+02    4.7028e+02 ;     O4 - C36    - H46   
    57     39    109      1    1.1034e+02    4.7028e+02 ;     O4 - C38    - H50   
    57     39    110      1    1.1034e+02    4.7028e+02 ;     O4 - C38    - H51   
    57     39    111      1    1.1034e+02    4.7028e+02 ;     O4 - C38    - H52   
    58      2     62      1    1.2015e+02    3.5238e+02 ;      S - C1     - H3    
    59      1     60      1    1.0773e+02    2.9957e+02 ;      H - C      - H1    
    59      1     61      1    1.0773e+02    2.9957e+02 ;      H - C      - H2    
    60      1     61      1    1.0773e+02    2.9957e+02 ;     H1 - C      - H2    
    63      4     64      1    1.0773e+02    2.9957e+02 ;     H4 - C3     - H5    
    67      8     68      1    1.1443e+02    2.9330e+02 ;     H8 - C7     - H9    
    70     10     71      1    1.0773e+02    2.9957e+02 ;    H11 - C9     - H12   
    70     10     72      1    1.0773e+02    2.9957e+02 ;    H11 - C9     - H13   
    71     10     72      1    1.0773e+02    2.9957e+02 ;    H12 - C9     - H13   
    73     12     74      1    1.0855e+02    2.9824e+02 ;    H14 - C11    - H15   
    75     13     76      1    1.0750e+02    2.9932e+02 ;    H16 - C12    - H17   
    77     14     78      1    1.0662e+02    3.0066e+02 ;    H18 - C13    - H19   
    79     15     80      1    1.0662e+02    3.0066e+02 ;    H20 - C14    - H21   
    82     18     83      1    1.0855e+02    2.9824e+02 ;    H23 - C17    - H24   
    84     20     85      1    1.0773e+02    2.9957e+02 ;    H25 - C19    - H26   
    84     20     86      1    1.0773e+02    2.9957e+02 ;    H25 - C19    - H27   
    85     20     86      1    1.0773e+02    2.9957e+02 ;    H26 - C19    - H27   
    87     21     88      1    1.0773e+02    2.9957e+02 ;    H28 - C20    - H29   
    87     21     89      1    1.0773e+02    2.9957e+02 ;    H28 - C20    - H30   
    88     21     89      1    1.0773e+02    2.9957e+02 ;    H29 - C20    - H30   
    90     22     91      1    1.0773e+02    2.9957e+02 ;    H31 - C21    - H32   
    94     31     95      1    1.0750e+02    2.9932e+02 ;    H35 - C30    - H36   
    96     32     97      1    1.0750e+02    2.9932e+02 ;    H37 - C31    - H38   
    98     33     99      1    1.0855e+02    2.9824e+02 ;    H39 - C32    - H40   
    98     33    100      1    1.0855e+02    2.9824e+02 ;    H39 - C32    - H41   
    99     33    100      1    1.0855e+02    2.9824e+02 ;    H40 - C32    - H41   
   101     35    102      1    1.0750e+02    2.9932e+02 ;    H42 - C34    - H43   
   103     36    104      1    1.0750e+02    2.9932e+02 ;    H44 - C35    - H45   
   106     38    107      1    1.0773e+02    2.9957e+02 ;    H47 - C37    - H48   
   106     38    108      1    1.0773e+02    2.9957e+02 ;    H47 - C37    - H49   
   107     38    108      1    1.0773e+02    2.9957e+02 ;    H48 - C37    - H49   
   109     39    110      1    1.0855e+02    2.9824e+02 ;    H50 - C38    - H51   
   109     39    111      1    1.0855e+02    2.9824e+02 ;    H50 - C38    - H52   
   110     39    111      1    1.0855e+02    2.9824e+02 ;    H51 - C38    - H52   

[ dihedrals ] ; propers
; for gromacs 4.5 or higher, using funct 9
;    i      j      k      l   func   phase     kd      pn
     1     12     45     23      9     0.00   0.00000   0 ;      C-   C11-     N-   C22
     1     12     45     25      9     0.00   0.00000   0 ;      C-   C11-     N-   C24
     2     44     41     40      9   180.00  15.77368   2 ;     C1-   C43-   C40-   C39
     2     44     41     42      9   180.00  15.77368   2 ;     C1-   C43-   C40-   C41
     2     44     52      3      9   180.00  19.87400   2 ;     C1-   C43-    N7-    C2
     2     58      3      4      9   180.00   4.60240   2 ;     C1-     S-    C2-    C3
     2     58      3     52      9   180.00   6.90360   2 ;     C1-     S-    C2-    N7
     3      4      5     11      9     0.00   0.65084   3 ;     C2-    C3-    C4-   C10
     3      4      5     46      9     0.00   0.65084   3 ;     C2-    C3-    C4-    N1
     3      4      5     65      9     0.00   0.65084   3 ;     C2-    C3-    C4-    H6
     3     52     44     41      9   180.00  19.87400   2 ;     C2-    N7-   C43-   C40
     3     58      2     44      9     0.00   0.00000   0 ;     C2-     S-    C1-   C43
     3     58      2     44      9   180.00   0.00000   2 ;     C2-     S-    C1-   C43
     3     58      2     44      9   180.00   5.27184   1 ;     C2-     S-    C1-   C43
     3     58      2     62      9   180.00   4.60240   2 ;     C2-     S-    C1-    H3
     4      3     52     44      9   180.00  19.87400   2 ;     C3-    C2-    N7-   C43
     4      5     11     47      9   180.00   0.00000   4 ;     C3-    C4-   C10-    N2
     4      5     11     47      9   180.00   2.97064   2 ;     C3-    C4-   C10-    N2
     4      5     11     54      9     0.00   2.84512   1 ;     C3-    C4-   C10-    O1
     4      5     11     54      9   180.00   0.83680   2 ;     C3-    C4-   C10-    O1
     4      5     11     54      9   180.00   1.84096   3 ;     C3-    C4-   C10-    O1
     4      5     46      6      9   180.00   4.81160   1 ;     C3-    C4-    N1-    C5
     4      5     46    115      9     0.00   0.00000   0 ;     C3-    C4-    N1-   H56
     5      4      3     52      9     0.00   0.00000   0 ;     C4-    C3-    C2-    N7
     5      4      3     58      9     0.00   0.00000   0 ;     C4-    C3-    C2-     S
     5     11     47     13      9     0.00   2.09200   3 ;     C4-   C10-    N2-   C12
     5     11     47     13      9     0.00  12.25912   1 ;     C4-   C10-    N2-   C12
     5     11     47     13      9   180.00   5.89944   2 ;     C4-   C10-    N2-   C12
     5     11     47     48      9   180.00  10.46000   2 ;     C4-   C10-    N2-    N3
     5     46      6      7      9   180.00  10.46000   2 ;     C4-    N1-    C5-    C6
     5     46      6     53      9   180.00  10.46000   2 ;     C4-    N1-    C5-     O
     6      7      8      9      9     0.00   0.65084   3 ;     C5-    C6-    C7-    C8
     6      7      8     67      9     0.00   0.65084   3 ;     C5-    C6-    C7-    H8
     6      7      8     68      9     0.00   0.65084   3 ;     C5-    C6-    C7-    H9
     6      7      9      8      9     0.00   0.65084   3 ;     C5-    C6-    C8-    C7
     6      7      9     10      9     0.00   0.65084   3 ;     C5-    C6-    C8-    C9
     6      7      9     69      9     0.00   0.65084   3 ;     C5-    C6-    C8-   H10
     6     46      5     11      9     0.00   3.72376   1 ;     C5-    N1-    C4-   C10
     6     46      5     65      9     0.00   0.00000   0 ;     C5-    N1-    C4-    H6
     7      6     46    115      9   180.00  10.46000   2 ;     C6-    C5-    N1-   H56
     7      8      9     10      9     0.00   0.65084   3 ;     C6-    C7-    C8-    C9
     7      8      9     69      9     0.00   0.65084   3 ;     C6-    C7-    C8-   H10
     7      9      8     67      9     0.00   0.65084   3 ;     C6-    C8-    C7-    H8
     7      9      8     68      9     0.00   0.65084   3 ;     C6-    C8-    C7-    H9
     7      9     10     70      9     0.00   0.54392   3 ;     C6-    C8-    C9-   H11
     7      9     10     71      9     0.00   0.54392   3 ;     C6-    C8-    C9-   H12
     7      9     10     72      9     0.00   0.54392   3 ;     C6-    C8-    C9-   H13
     8      7      6     46      9   180.00   0.00000   2 ;     C7-    C6-    C5-    N1
     8      7      6     53      9   180.00   0.00000   2 ;     C7-    C6-    C5-     O
     8      7      9     10      9     0.00   0.65084   3 ;     C7-    C6-    C8-    C9
     8      7      9     69      9     0.00   0.65084   3 ;     C7-    C6-    C8-   H10
     8      9      7     66      9     0.00   0.65084   3 ;     C7-    C8-    C6-    H7
     8      9     10     70      9     0.00   0.54392   3 ;     C7-    C8-    C9-   H11
     8      9     10     71      9     0.00   0.54392   3 ;     C7-    C8-    C9-   H12
     8      9     10     72      9     0.00   0.54392   3 ;     C7-    C8-    C9-   H13
     9      7      6     46      9   180.00   0.00000   2 ;     C8-    C6-    C5-    N1
     9      7      6     53      9   180.00   0.00000   2 ;     C8-    C6-    C5-     O
     9      7      8     67      9     0.00   0.65084   3 ;     C8-    C6-    C7-    H8
     9      7      8     68      9     0.00   0.65084   3 ;     C8-    C6-    C7-    H9
     9      8      7     66      9     0.00   0.65084   3 ;     C8-    C7-    C6-    H7
    10      9      7     66      9     0.00   0.65084   3 ;     C9-    C8-    C6-    H7
    10      9      8     67      9     0.00   0.65084   3 ;     C9-    C8-    C7-    H8
    10      9      8     68      9     0.00   0.65084   3 ;     C9-    C8-    C7-    H9
    11      5      4     63      9     0.00   0.65084   3 ;    C10-    C4-    C3-    H4
    11      5      4     64      9     0.00   0.65084   3 ;    C10-    C4-    C3-    H5
    11      5     46    115      9     0.00   0.00000   0 ;    C10-    C4-    N1-   H56
    11     47     13     14      9     0.00   9.45584   1 ;    C10-    N2-   C12-   C13
    11     47     13     14      9   180.00   0.12552   3 ;    C10-    N2-   C12-   C13
    11     47     13     14      9   180.00   2.71960   4 ;    C10-    N2-   C12-   C13
    11     47     13     75      9   180.00   0.00000   2 ;    C10-    N2-   C12-   H16
    11     47     13     76      9   180.00   0.00000   2 ;    C10-    N2-   C12-   H17
    11     47     48     16      9     0.00   4.49780   2 ;    C10-    N2-    N3-   C15
    11     47     48    116      9     0.00   4.49780   2 ;    C10-    N2-    N3-   H57
    12     45     23     34      9   180.00   1.25520   2 ;    C11-     N-   C22-   C33
    12     45     23     43      9   180.00   1.25520   2 ;    C11-     N-   C22-   C42
    12     45     25     24      9   180.00   7.11280   2 ;    C11-     N-   C24-   C23
    12     45     25     26      9   180.00   7.11280   2 ;    C11-     N-   C24-   C25
    13     14     15     16      9     0.00   2.17568   3 ;    C12-   C13-   C14-   C15
    13     14     15     79      9     0.00   0.54392   3 ;    C12-   C13-   C14-   H20
    13     14     15     80      9     0.00   0.54392   3 ;    C12-   C13-   C14-   H21
    13     47     11     54      9   180.00  10.46000   2 ;    C12-    N2-   C10-    O1
    13     47     48     16      9     0.00   4.49780   2 ;    C12-    N2-    N3-   C15
    13     47     48    116      9     0.00   4.49780   2 ;    C12-    N2-    N3-   H57
    14     13     47     48      9     0.00   0.00000   0 ;    C13-   C12-    N2-    N3
    14     15     16     17      9     0.00   0.00000   0 ;    C13-   C14-   C15-   C16
    14     15     16     17      9     0.00   0.16736   2 ;    C13-   C14-   C15-   C16
    14     15     16     17      9   180.00   1.92464   1 ;    C13-   C14-   C15-   C16
    14     15     16     48      9     0.00   0.87864   3 ;    C13-   C14-   C15-    N3
    14     15     16     81      9     0.00   0.65084   3 ;    C13-   C14-   C15-   H22
    15     14     13     47      9     0.00   0.41840   3 ;    C14-   C13-   C12-    N2
    15     14     13     75      9     0.00   0.65084   3 ;    C14-   C13-   C12-   H16
    15     14     13     76      9     0.00   0.65084   3 ;    C14-   C13-   C12-   H17
    15     16     17     55      9     0.00   0.46024   2 ;    C14-   C15-   C16-    O2
    15     16     17     55      9     0.00  49.12016   1 ;    C14-   C15-   C16-    O2
    15     16     17     55      9   180.00   0.33472   3 ;    C14-   C15-   C16-    O2
    15     16     17     56      9   180.00   0.00000   2 ;    C14-   C15-   C16-    O3
    15     16     48     47      9     0.00   1.25520   3 ;    C14-   C15-    N3-    N2
    15     16     48    116      9     0.00   0.90793   3 ;    C14-   C15-    N3-   H57
    16     15     14     77      9     0.00   0.54392   3 ;    C15-   C14-   C13-   H18
    16     15     14     78      9     0.00   0.54392   3 ;    C15-   C14-   C13-   H19
    16     17     56     18      9     0.00   3.13800   3 ;    C15-   C16-    O3-   C17
    16     17     56     18      9   180.00   7.90776   1 ;    C15-   C16-    O3-   C17
    16     17     56     18      9   180.00  13.76536   2 ;    C15-   C16-    O3-   C17
    17     16     15     79      9     0.00   0.65084   3 ;    C16-   C15-   C14-   H20
    17     16     15     80      9     0.00   0.65084   3 ;    C16-   C15-   C14-   H21
    17     16     48     47      9     0.00   1.25520   3 ;    C16-   C15-    N3-    N2
    17     16     48    116      9     0.00   1.25520   3 ;    C16-   C15-    N3-   H57
    17     56     18     19      9     0.00   1.60247   3 ;    C16-    O3-   C17-   C18
    17     56     18     19      9   180.00   3.34720   1 ;    C16-    O3-   C17-   C18
    17     56     18     82      9     0.00   1.60387   3 ;    C16-    O3-   C17-   H23
    17     56     18     83      9     0.00   1.60387   3 ;    C16-    O3-   C17-   H24
    18     19     20     84      9     0.00   0.54392   3 ;    C17-   C18-   C19-   H25
    18     19     20     85      9     0.00   0.54392   3 ;    C17-   C18-   C19-   H26
    18     19     20     86      9     0.00   0.54392   3 ;    C17-   C18-   C19-   H27
    18     19     21     87      9     0.00   0.54392   3 ;    C17-   C18-   C20-   H28
    18     19     21     88      9     0.00   0.54392   3 ;    C17-   C18-   C20-   H29
    18     19     21     89      9     0.00   0.54392   3 ;    C17-   C18-   C20-   H30
    18     19     22     24      9     0.00   0.65084   3 ;    C17-   C18-   C21-   C23
    18     19     22     90      9     0.00   0.54392   3 ;    C17-   C18-   C21-   H31
    18     19     22     91      9     0.00   0.54392   3 ;    C17-   C18-   C21-   H32
    18     56     17     55      9   180.00   5.85760   1 ;    C17-    O3-   C16-    O2
    18     56     17     55      9   180.00  11.29680   2 ;    C17-    O3-   C16-    O2
    19     22     24     25      9   180.00   0.65689   3 ;    C18-   C21-   C23-   C24
    19     22     24     34      9     0.00   0.00000   0 ;    C18-   C21-   C23-   C33
    20     19     18     56      9     0.00   0.65084   3 ;    C19-   C18-   C17-    O3
    20     19     18     82      9     0.00   0.65084   3 ;    C19-   C18-   C17-   H23
    20     19     18     83      9     0.00   0.65084   3 ;    C19-   C18-   C17-   H24
    20     19     21     87      9     0.00   0.54392   3 ;    C19-   C18-   C20-   H28
    20     19     21     88      9     0.00   0.54392   3 ;    C19-   C18-   C20-   H29
    20     19     21     89      9     0.00   0.54392   3 ;    C19-   C18-   C20-   H30
    20     19     22     24      9     0.00   0.65084   3 ;    C19-   C18-   C21-   C23
    20     19     22     90      9     0.00   0.54392   3 ;    C19-   C18-   C21-   H31
    20     19     22     91      9     0.00   0.54392   3 ;    C19-   C18-   C21-   H32
    21     19     18     56      9     0.00   0.65084   3 ;    C20-   C18-   C17-    O3
    21     19     18     82      9     0.00   0.65084   3 ;    C20-   C18-   C17-   H23
    21     19     18     83      9     0.00   0.65084   3 ;    C20-   C18-   C17-   H24
    21     19     20     84      9     0.00   0.54392   3 ;    C20-   C18-   C19-   H25
    21     19     20     85      9     0.00   0.54392   3 ;    C20-   C18-   C19-   H26
    21     19     20     86      9     0.00   0.54392   3 ;    C20-   C18-   C19-   H27
    21     19     22     24      9     0.00   0.65084   3 ;    C20-   C18-   C21-   C23
    21     19     22     90      9     0.00   0.54392   3 ;    C20-   C18-   C21-   H31
    21     19     22     91      9     0.00   0.54392   3 ;    C20-   C18-   C21-   H32
    22     19     18     56      9     0.00   0.65084   3 ;    C21-   C18-   C17-    O3
    22     19     18     82      9     0.00   0.65084   3 ;    C21-   C18-   C17-   H23
    22     19     18     83      9     0.00   0.65084   3 ;    C21-   C18-   C17-   H24
    22     19     20     84      9     0.00   0.54392   3 ;    C21-   C18-   C19-   H25
    22     19     20     85      9     0.00   0.54392   3 ;    C21-   C18-   C19-   H26
    22     19     20     86      9     0.00   0.54392   3 ;    C21-   C18-   C19-   H27
    22     19     21     87      9     0.00   0.54392   3 ;    C21-   C18-   C20-   H28
    22     19     21     88      9     0.00   0.54392   3 ;    C21-   C18-   C20-   H29
    22     19     21     89      9     0.00   0.54392   3 ;    C21-   C18-   C20-   H30
    22     24     25     26      9   180.00  16.73600   2 ;    C21-   C23-   C24-   C25
    22     24     25     45      9   180.00  16.73600   2 ;    C21-   C23-   C24-     N
    22     24     34     23      9   180.00   2.51040   2 ;    C21-   C23-   C33-   C22
    22     24     34     40      9   180.00   2.51040   2 ;    C21-   C23-   C33-   C39
    23     34     24     25      9   180.00  15.77368   2 ;    C22-   C33-   C23-   C24
    23     34     40     41      9   180.00  15.16700   2 ;    C22-   C33-   C39-   C40
    23     34     40    112      9   180.00  15.16700   2 ;    C22-   C33-   C39-   H53
    23     43     42     41      9   180.00  15.16700   2 ;    C22-   C42-   C41-   C40
    23     43     42    113      9   180.00  15.16700   2 ;    C22-   C42-   C41-   H54
    23     45     12     73      9     0.00   0.00000   0 ;    C22-     N-   C11-   H14
    23     45     12     74      9     0.00   0.00000   0 ;    C22-     N-   C11-   H15
    23     45     25     24      9   180.00   7.11280   2 ;    C22-     N-   C24-   C23
    23     45     25     26      9   180.00   7.11280   2 ;    C22-     N-   C24-   C25
    24     25     26     27      9   180.00   2.44764   2 ;    C23-   C24-   C25-   C26
    24     25     26     30      9   180.00   2.44764   2 ;    C23-   C24-   C25-   C29
    24     34     23     43      9   180.00  15.16700   2 ;    C23-   C33-   C22-   C42
    24     34     23     45      9   180.00  15.16700   2 ;    C23-   C33-   C22-     N
    24     34     40     41      9   180.00  15.16700   2 ;    C23-   C33-   C39-   C40
    24     34     40    112      9   180.00  15.16700   2 ;    C23-   C33-   C39-   H53
    25     24     22     90      9     0.00   0.00000   0 ;    C24-   C23-   C21-   H31
    25     24     22     91      9     0.00   0.00000   0 ;    C24-   C23-   C21-   H32
    25     24     34     40      9   180.00  15.77368   2 ;    C24-   C23-   C33-   C39
    25     26     27     37      9   180.00  15.16700   2 ;    C24-   C25-   C26-   C36
    25     26     27     49      9   180.00  15.16700   2 ;    C24-   C25-   C26-    N4
    25     26     30     29      9   180.00  15.16700   2 ;    C24-   C25-   C29-   C28
    25     26     30     93      9   180.00  15.16700   2 ;    C24-   C25-   C29-   H34
    25     45     12     73      9     0.00   0.00000   0 ;    C24-     N-   C11-   H14
    25     45     12     74      9     0.00   0.00000   0 ;    C24-     N-   C11-   H15
    25     45     23     34      9   180.00   2.56479   2 ;    C24-     N-   C22-   C33
    25     45     23     43      9   180.00   2.56479   2 ;    C24-     N-   C22-   C42
    26     25     24     34      9   180.00  16.73600   2 ;    C25-   C24-   C23-   C33
    26     27     37     38      9   180.00   1.00416   2 ;    C25-   C26-   C36-   C37
    26     27     37     57      9     0.00   0.00000   0 ;    C25-   C26-   C36-    O4
    26     27     37    105      9     0.00   0.00000   0 ;    C25-   C26-   C36-   H46
    26     27     49     28      9   180.00  20.08320   2 ;    C25-   C26-    N4-   C27
    26     30     29     28      9   180.00  15.16700   2 ;    C25-   C29-   C28-   C27
    26     30     29     50      9   180.00  15.16700   2 ;    C25-   C29-   C28-    N5
    27     26     25     45      9   180.00   4.59194   2 ;    C26-   C25-   C24-     N
    27     26     30     29      9   180.00  15.16700   2 ;    C26-   C25-   C29-   C28
    27     26     30     93      9   180.00  15.16700   2 ;    C26-   C25-   C29-   H34
    27     37     38    106      9     0.00   0.65084   3 ;    C26-   C36-   C37-   H47
    27     37     38    107      9     0.00   0.65084   3 ;    C26-   C36-   C37-   H48
    27     37     38    108      9     0.00   0.65084   3 ;    C26-   C36-   C37-   H49
    27     37     57     39      9     0.00   1.60387   3 ;    C26-   C36-    O4-   C38
    27     49     28     29      9   180.00  20.08320   2 ;    C26-    N4-   C27-   C28
    27     49     28     92      9   180.00  20.08320   2 ;    C26-    N4-   C27-   H33
    28     29     30     93      9   180.00  15.16700   2 ;    C27-   C28-   C29-   H34
    28     29     50     31      9   180.00   3.15055   2 ;    C27-   C28-    N5-   C30
    28     29     50     36      9   180.00   3.15055   2 ;    C27-   C28-    N5-   C35
    28     49     27     37      9   180.00  20.08320   2 ;    C27-    N4-   C26-   C36
    29     50     31     32      9     0.00   0.00000   0 ;    C28-    N5-   C30-   C31
    29     50     31     94      9     0.00   1.38909   2 ;    C28-    N5-   C30-   H35
    29     50     31     95      9     0.00   1.38909   2 ;    C28-    N5-   C30-   H36
    29     50     36     35      9     0.00   0.00000   0 ;    C28-    N5-   C35-   C34
    29     50     36    103      9     0.00   1.38909   2 ;    C28-    N5-   C35-   H44
    29     50     36    104      9     0.00   1.38909   2 ;    C28-    N5-   C35-   H45
    30     26     25     45      9   180.00   4.59194   2 ;    C29-   C25-   C24-     N
    30     26     27     37      9   180.00  15.16700   2 ;    C29-   C25-   C26-   C36
    30     26     27     49      9   180.00  15.16700   2 ;    C29-   C25-   C26-    N4
    30     29     28     49      9   180.00  15.16700   2 ;    C29-   C28-   C27-    N4
    30     29     28     92      9   180.00  15.16700   2 ;    C29-   C28-   C27-   H33
    30     29     50     31      9   180.00   3.15055   2 ;    C29-   C28-    N5-   C30
    30     29     50     36      9   180.00   3.15055   2 ;    C29-   C28-    N5-   C35
    31     32     51     33      9     0.00   3.05432   3 ;    C30-   C31-    N6-   C32
    31     32     51     35      9     0.00   3.05432   3 ;    C30-   C31-    N6-   C34
    31     50     36     35      9     0.00   0.00000   0 ;    C30-    N5-   C35-   C34
    31     50     36    103      9     0.00   0.00000   0 ;    C30-    N5-   C35-   H44
    31     50     36    104      9     0.00   0.00000   0 ;    C30-    N5-   C35-   H45
    32     31     50     36      9     0.00   0.00000   0 ;    C31-   C30-    N5-   C35
    32     51     33     98      9     0.00   0.94140   3 ;    C31-    N6-   C32-   H39
    32     51     33     99      9     0.00   0.94140   3 ;    C31-    N6-   C32-   H40
    32     51     33    100      9     0.00   0.94140   3 ;    C31-    N6-   C32-   H41
    32     51     35     36      9     0.00   3.05432   3 ;    C31-    N6-   C34-   C35
    32     51     35    101      9     0.00   0.94140   3 ;    C31-    N6-   C34-   H42
    32     51     35    102      9     0.00   0.94140   3 ;    C31-    N6-   C34-   H43
    33     51     32     96      9     0.00   0.94140   3 ;    C32-    N6-   C31-   H37
    33     51     32     97      9     0.00   0.94140   3 ;    C32-    N6-   C31-   H38
    33     51     35     36      9     0.00   3.05432   3 ;    C32-    N6-   C34-   C35
    33     51     35    101      9     0.00   0.94140   3 ;    C32-    N6-   C34-   H42
    33     51     35    102      9     0.00   0.94140   3 ;    C32-    N6-   C34-   H43
    34     23     43     42      9   180.00  15.16700   2 ;    C33-   C22-   C42-   C41
    34     23     43    114      9   180.00  15.16700   2 ;    C33-   C22-   C42-   H55
    34     24     22     90      9     0.00   0.00000   0 ;    C33-   C23-   C21-   H31
    34     24     22     91      9     0.00   0.00000   0 ;    C33-   C23-   C21-   H32
    34     24     25     45      9   180.00  16.73600   2 ;    C33-   C23-   C24-     N
    34     40     41     42      9   180.00  15.16700   2 ;    C33-   C39-   C40-   C41
    34     40     41     44      9   180.00  15.16700   2 ;    C33-   C39-   C40-   C43
    35     51     32     96      9     0.00   0.94140   3 ;    C34-    N6-   C31-   H37
    35     51     32     97      9     0.00   0.94140   3 ;    C34-    N6-   C31-   H38
    35     51     33     98      9     0.00   0.94140   3 ;    C34-    N6-   C32-   H39
    35     51     33     99      9     0.00   0.94140   3 ;    C34-    N6-   C32-   H40
    35     51     33    100      9     0.00   0.94140   3 ;    C34-    N6-   C32-   H41
    36     50     31     94      9     0.00   0.00000   0 ;    C35-    N5-   C30-   H35
    36     50     31     95      9     0.00   0.00000   0 ;    C35-    N5-   C30-   H36
    37     57     39    109      9     0.00   1.41001   3 ;    C36-    O4-   C38-   H50
    37     57     39    110      9     0.00   1.41001   3 ;    C36-    O4-   C38-   H51
    37     57     39    111      9     0.00   1.41001   3 ;    C36-    O4-   C38-   H52
    38     37     27     49      9     0.00   0.00000   0 ;    C37-   C36-   C26-    N4
    38     37     57     39      9     0.00   0.33472   2 ;    C37-   C36-    O4-   C38
    38     37     57     39      9     0.00   3.13800   3 ;    C37-   C36-    O4-   C38
    38     37     57     39      9   180.00   3.68192   1 ;    C37-   C36-    O4-   C38
    39     57     37    105      9     0.00   1.41001   3 ;    C38-    O4-   C36-   H46
    40     34     23     43      9   180.00  15.16700   2 ;    C39-   C33-   C22-   C42
    40     34     23     45      9   180.00  15.16700   2 ;    C39-   C33-   C22-     N
    40     41     42     43      9   180.00  15.16700   2 ;    C39-   C40-   C41-   C42
    40     41     42    113      9   180.00  15.16700   2 ;    C39-   C40-   C41-   H54
    40     41     44     52      9   180.00   3.13800   3 ;    C39-   C40-   C43-    N7
    40     41     44     52      9   180.00   3.43088   1 ;    C39-   C40-   C43-    N7
    40     41     44     52      9   180.00   4.18400   2 ;    C39-   C40-   C43-    N7
    41     42     43    114      9   180.00  15.16700   2 ;    C40-   C41-   C42-   H55
    41     44      2     58      9   180.00  16.73600   2 ;    C40-   C43-    C1-     S
    41     44      2     62      9   180.00  16.73600   2 ;    C40-   C43-    C1-    H3
    42     41     40    112      9   180.00  15.16700   2 ;    C41-   C40-   C39-   H53
    42     41     44     52      9   180.00   3.13800   3 ;    C41-   C40-   C43-    N7
    42     41     44     52      9   180.00   3.43088   1 ;    C41-   C40-   C43-    N7
    42     41     44     52      9   180.00   4.18400   2 ;    C41-   C40-   C43-    N7
    42     43     23     45      9   180.00  15.16700   2 ;    C41-   C42-   C22-     N
    43     42     41     44      9   180.00  15.16700   2 ;    C42-   C41-   C40-   C43
    44     41     40    112      9   180.00  15.16700   2 ;    C43-   C40-   C39-   H53
    44     41     42    113      9   180.00  15.16700   2 ;    C43-   C40-   C41-   H54
    44     52      3     58      9   180.00  19.87400   2 ;    C43-    N7-    C2-     S
    45     23     43    114      9   180.00  15.16700   2 ;      N-   C22-   C42-   H55
    46      5      4     63      9     0.00   0.65084   3 ;     N1-    C4-    C3-    H4
    46      5      4     64      9     0.00   0.65084   3 ;     N1-    C4-    C3-    H5
    46      5     11     47      9   180.00   0.41840   1 ;     N1-    C4-   C10-    N2
    46      5     11     47      9   180.00   8.87008   2 ;     N1-    C4-   C10-    N2
    46      5     11     54      9   180.00   0.00000   2 ;     N1-    C4-   C10-    O1
    46      6      7     66      9   180.00   0.00000   2 ;     N1-    C5-    C6-    H7
    47     11      5     65      9   180.00   0.00000   2 ;     N2-   C10-    C4-    H6
    47     13     14     77      9     0.00   0.65084   3 ;     N2-   C12-   C13-   H18
    47     13     14     78      9     0.00   0.65084   3 ;     N2-   C12-   C13-   H19
    47     48     16     81      9     0.00   1.25520   3 ;     N2-    N3-   C15-   H22
    48     16     15     79      9     0.00   0.41840   3 ;     N3-   C15-   C14-   H20
    48     16     15     80      9     0.00   0.41840   3 ;     N3-   C15-   C14-   H21
    48     16     17     55      9   180.00   0.00000   2 ;     N3-   C15-   C16-    O2
    48     16     17     56      9   180.00   0.00000   2 ;     N3-   C15-   C16-    O3
    48     47     11     54      9   180.00  10.46000   2 ;     N3-    N2-   C10-    O1
    48     47     13     75      9     0.00   0.00000   0 ;     N3-    N2-   C12-   H16
    48     47     13     76      9     0.00   0.00000   0 ;     N3-    N2-   C12-   H17
    49     27     37     57      9     0.00   0.00000   0 ;     N4-   C26-   C36-    O4
    49     27     37    105      9     0.00   0.00000   0 ;     N4-   C26-   C36-   H46
    49     28     29     50      9   180.00  15.16700   2 ;     N4-   C27-   C28-    N5
    50     29     28     92      9   180.00  15.16700   2 ;     N5-   C28-   C27-   H33
    50     29     30     93      9   180.00  15.16700   2 ;     N5-   C28-   C29-   H34
    50     31     32     51      9     0.00   0.65084   3 ;     N5-   C30-   C31-    N6
    50     31     32     96      9     0.00   0.65084   3 ;     N5-   C30-   C31-   H37
    50     31     32     97      9     0.00   0.65084   3 ;     N5-   C30-   C31-   H38
    50     36     35     51      9     0.00   0.65084   3 ;     N5-   C35-   C34-    N6
    50     36     35    101      9     0.00   0.65084   3 ;     N5-   C35-   C34-   H42
    50     36     35    102      9     0.00   0.65084   3 ;     N5-   C35-   C34-   H43
    51     32     31     94      9     0.00   0.65084   3 ;     N6-   C31-   C30-   H35
    51     32     31     95      9     0.00   0.65084   3 ;     N6-   C31-   C30-   H36
    51     35     36    103      9     0.00   0.65084   3 ;     N6-   C34-   C35-   H44
    51     35     36    104      9     0.00   0.65084   3 ;     N6-   C34-   C35-   H45
    52      3      4     63      9     0.00   0.00000   0 ;     N7-    C2-    C3-    H4
    52      3      4     64      9     0.00   0.00000   0 ;     N7-    C2-    C3-    H5
    52     44      2     58      9   180.00  16.73600   2 ;     N7-   C43-    C1-     S
    52     44      2     62      9   180.00  16.73600   2 ;     N7-   C43-    C1-    H3
    53      6      7     66      9   180.00   0.00000   2 ;      O-    C5-    C6-    H7
    53      6     46    115      9     0.00   8.36800   1 ;      O-    C5-    N1-   H56
    53      6     46    115      9   180.00  10.46000   2 ;      O-    C5-    N1-   H56
    54     11      5     65      9     0.00   3.34720   1 ;     O1-   C10-    C4-    H6
    54     11      5     65      9   180.00   0.33472   3 ;     O1-   C10-    C4-    H6
    55     17     16     81      9     0.00   3.34720   1 ;     O2-   C16-   C15-   H22
    55     17     16     81      9   180.00   0.33472   3 ;     O2-   C16-   C15-   H22
    56     17     16     81      9   180.00   0.00000   2 ;     O3-   C16-   C15-   H22
    57     37     38    106      9     0.00   0.00000   0 ;     O4-   C36-   C37-   H47
    57     37     38    106      9     0.00   1.04600   1 ;     O4-   C36-   C37-   H47
    57     37     38    107      9     0.00   0.00000   0 ;     O4-   C36-   C37-   H48
    57     37     38    107      9     0.00   1.04600   1 ;     O4-   C36-   C37-   H48
    57     37     38    108      9     0.00   0.00000   0 ;     O4-   C36-   C37-   H49
    57     37     38    108      9     0.00   1.04600   1 ;     O4-   C36-   C37-   H49
    58      3      4     63      9     0.00   0.00000   0 ;      S-    C2-    C3-    H4
    58      3      4     64      9     0.00   0.00000   0 ;      S-    C2-    C3-    H5
    59      1     12     45      9     0.00   0.65084   3 ;      H-     C-   C11-     N
    59      1     12     73      9     0.00   0.65084   3 ;      H-     C-   C11-   H14
    59      1     12     74      9     0.00   0.65084   3 ;      H-     C-   C11-   H15
    60      1     12     45      9     0.00   0.65084   3 ;     H1-     C-   C11-     N
    60      1     12     73      9     0.00   0.65084   3 ;     H1-     C-   C11-   H14
    60      1     12     74      9     0.00   0.65084   3 ;     H1-     C-   C11-   H15
    61      1     12     45      9     0.00   0.65084   3 ;     H2-     C-   C11-     N
    61      1     12     73      9     0.00   0.65084   3 ;     H2-     C-   C11-   H14
    61      1     12     74      9     0.00   0.65084   3 ;     H2-     C-   C11-   H15
    63      4      5     65      9     0.00   0.65084   3 ;     H4-    C3-    C4-    H6
    64      4      5     65      9     0.00   0.65084   3 ;     H5-    C3-    C4-    H6
    65      5     46    115      9     0.00   0.00000   0 ;     H6-    C4-    N1-   H56
    66      7      8     67      9     0.00   0.65084   3 ;     H7-    C6-    C7-    H8
    66      7      8     68      9     0.00   0.65084   3 ;     H7-    C6-    C7-    H9
    66      7      9     69      9     0.00   0.65084   3 ;     H7-    C6-    C8-   H10
    67      8      9     69      9     0.00   0.65084   3 ;     H8-    C7-    C8-   H10
    68      8      9     69      9     0.00   0.65084   3 ;     H9-    C7-    C8-   H10
    69      9     10     70      9     0.00   0.50208   3 ;    H10-    C8-    C9-   H11
    69      9     10     71      9     0.00   0.50208   3 ;    H10-    C8-    C9-   H12
    69      9     10     72      9     0.00   0.50208   3 ;    H10-    C8-    C9-   H13
    75     13     14     77      9     0.00   0.65084   3 ;    H16-   C12-   C13-   H18
    75     13     14     78      9     0.00   0.65084   3 ;    H16-   C12-   C13-   H19
    76     13     14     77      9     0.00   0.65084   3 ;    H17-   C12-   C13-   H18
    76     13     14     78      9     0.00   0.65084   3 ;    H17-   C12-   C13-   H19
    77     14     15     79      9     0.00   0.50208   3 ;    H18-   C13-   C14-   H20
    77     14     15     80      9     0.00   0.50208   3 ;    H18-   C13-   C14-   H21
    78     14     15     79      9     0.00   0.50208   3 ;    H19-   C13-   C14-   H20
    78     14     15     80      9     0.00   0.50208   3 ;    H19-   C13-   C14-   H21
    79     15     16     81      9     0.00   0.65084   3 ;    H20-   C14-   C15-   H22
    80     15     16     81      9     0.00   0.65084   3 ;    H21-   C14-   C15-   H22
    81     16     48    116      9     0.00   1.25520   3 ;    H22-   C15-    N3-   H57
    94     31     32     96      9     0.00   0.65084   3 ;    H35-   C30-   C31-   H37
    94     31     32     97      9     0.00   0.65084   3 ;    H35-   C30-   C31-   H38
    95     31     32     96      9     0.00   0.65084   3 ;    H36-   C30-   C31-   H37
    95     31     32     97      9     0.00   0.65084   3 ;    H36-   C30-   C31-   H38
   101     35     36    103      9     0.00   0.65084   3 ;    H42-   C34-   C35-   H44
   101     35     36    104      9     0.00   0.65084   3 ;    H42-   C34-   C35-   H45
   102     35     36    103      9     0.00   0.65084   3 ;    H43-   C34-   C35-   H44
   102     35     36    104      9     0.00   0.65084   3 ;    H43-   C34-   C35-   H45
   105     37     38    106      9     0.00   0.65084   3 ;    H46-   C36-   C37-   H47
   105     37     38    107      9     0.00   0.65084   3 ;    H46-   C36-   C37-   H48
   105     37     38    108      9     0.00   0.65084   3 ;    H46-   C36-   C37-   H49
   113     42     43    114      9   180.00  15.16700   2 ;    H54-   C41-   C42-   H55

[ dihedrals ] ; impropers
; treated as propers in GROMACS to use correct AMBER analytical function
;    i      j      k      l   func   phase     kd      pn
     4     52      3     58      4   180.00   4.60240   2 ;     C3-    N7-    C2-     S
     5     47     11     54      4   180.00  43.93200   2 ;     C4-    N2-   C10-    O1
     6      5     46    115      4   180.00   4.60240   2 ;     C5-    C4-    N1-   H56
     7     46      6     53      4   180.00  43.93200   2 ;     C6-    N1-    C5-     O
    11     13     47     48      4   180.00   4.60240   2 ;    C10-   C12-    N2-    N3
    12     23     45     25      4   180.00   4.60240   2 ;    C11-   C22-     N-   C24
    16     55     17     56      4   180.00   4.60240   2 ;    C15-    O2-   C16-    O3
    22     34     24     25      4   180.00   4.60240   2 ;    C21-   C33-   C23-   C24
    23     40     34     24      4   180.00   4.60240   2 ;    C22-   C39-   C33-   C23
    23     42     43    114      4   180.00   4.60240   2 ;    C22-   C41-   C42-   H55
    26     24     25     45      4   180.00   4.60240   2 ;    C25-   C23-   C24-     N
    26     29     30     93      4   180.00   4.60240   2 ;    C25-   C28-   C29-   H34
    27     30     26     25      4   180.00   4.60240   2 ;    C26-   C29-   C25-   C24
    28     30     29     50      4   180.00   4.60240   2 ;    C27-   C29-   C28-    N5
    29     92     28     49      4   180.00   4.60240   2 ;    C28-   H33-   C27-    N4
    31     36     50     29      4   180.00   4.60240   2 ;    C30-   C35-    N5-   C28
    34     41     40    112      4   180.00   4.60240   2 ;    C33-   C40-   C39-   H53
    34     43     23     45      4   180.00   4.60240   2 ;    C33-   C42-   C22-     N
    37     26     27     49      4   180.00   4.60240   2 ;    C36-   C25-   C26-    N4
    40     42     41     44      4   180.00   4.60240   2 ;    C39-   C41-   C40-   C43
    41      2     44     52      4   180.00   4.60240   2 ;    C40-    C1-   C43-    N7
    41     43     42    113      4   180.00   4.60240   2 ;    C40-   C42-   C41-   H54
    44     62      2     58      4   180.00   4.60240   2 ;    C43-    H3-    C1-     S
