; GDP (GDP 3-) GAFF2/AM1-BCC via ACPYPE — atomtypes em ligand_atomtypes.itp
; GDP_GMX.itp created by acpype (v: 2023.10.27) on Mon Aug  3 10:46:45 2026



[ moleculetype ]
;name            nrexcl
 GDP              3

[ atoms ]
;   nr  type  resi  res  atom  cgnr     charge      mass       ; qtot   bond_type
     1   p5     1   GDP     P    1     1.393900     30.97000 ; qtot 1.394
     2    o     1   GDP     O    2    -0.887500     16.00000 ; qtot 0.506
     3    o     1   GDP    O1    3    -0.887500     16.00000 ; qtot -0.381
     4    o     1   GDP    O2    4    -0.887500     16.00000 ; qtot -1.269
     5   os     1   GDP    O3    5    -0.739800     16.00000 ; qtot -2.008
     6   p5     1   GDP    P1    6     1.649800     30.97000 ; qtot -0.359
     7    o     1   GDP    O4    7    -0.703500     16.00000 ; qtot -1.062
     8    o     1   GDP    O5    8    -0.703500     16.00000 ; qtot -1.766
     9   os     1   GDP    O6    9    -0.612200     16.00000 ; qtot -2.378
    10   c3     1   GDP     C   10     0.242400     12.01000 ; qtot -2.135
    11   c5     1   GDP    C1   11     0.167100     12.01000 ; qtot -1.968
    12   os     1   GDP    O7   12    -0.475600     16.00000 ; qtot -2.444
    13   c5     1   GDP    C2   13    -0.357900     12.01000 ; qtot -2.802
    14   oh     1   GDP    O8   14    -0.551800     16.00000 ; qtot -3.354
    15   c5     1   GDP    C3   15     0.176100     12.01000 ; qtot -3.178
    16   oh     1   GDP    O9   16    -0.658800     16.00000 ; qtot -3.836
    17   c5     1   GDP    C4   17     0.209800     12.01000 ; qtot -3.627
    18   na     1   GDP     N   18    -0.171900     14.01000 ; qtot -3.798
    19   cc     1   GDP    C5   19     0.491400     12.01000 ; qtot -3.307
    20   nd     1   GDP    N1   20    -0.662000     14.01000 ; qtot -3.969
    21   cd     1   GDP    C6   21     0.189800     12.01000 ; qtot -3.779
    22    c     1   GDP    C7   22     0.643000     12.01000 ; qtot -3.136
    23    o     1   GDP   O10   23    -0.610100     16.00000 ; qtot -3.746
    24   nd     1   GDP    N2   24    -0.780100     14.01000 ; qtot -4.526
    25   cc     1   GDP    C8   25     0.775100     12.01000 ; qtot -3.751
    26   nv     1   GDP    N3   26    -0.876800     14.01000 ; qtot -4.628
    27   na     1   GDP    N4   27    -0.673600     14.01000 ; qtot -5.302
    28   cc     1   GDP    C9   28    -0.032000     12.01000 ; qtot -5.334
    29   h1     1   GDP     H   29    -0.005800      1.00800 ; qtot -5.340
    30   h1     1   GDP    H1   30    -0.005800      1.00800 ; qtot -5.345
    31   h1     1   GDP    H2   31    -0.001300      1.00800 ; qtot -5.347
    32   h1     1   GDP    H3   32     0.219700      1.00800 ; qtot -5.127
    33   ho     1   GDP    H4   33     0.244000      1.00800 ; qtot -4.883
    34   h1     1   GDP    H5   34     0.086700      1.00800 ; qtot -4.796
    35   ho     1   GDP    H6   35     0.402000      1.00800 ; qtot -4.394
    36   h2     1   GDP    H7   36    -0.002300      1.00800 ; qtot -4.396
    37   h5     1   GDP    H8   37     0.206100      1.00800 ; qtot -4.190
    38   hn     1   GDP    H9   38     0.370800      1.00800 ; qtot -3.820
    39   hn     1   GDP   H10   39     0.370800      1.00800 ; qtot -3.449
    40   hn     1   GDP   H11   40     0.448800      1.00800 ; qtot -3.000

[ bonds ]
;   ai     aj funct   r             k
     1      2   1    1.4885e-01    4.7951e+05 ;      P - O     
     1      3   1    1.4885e-01    4.7951e+05 ;      P - O1    
     1      4   1    1.4885e-01    4.7951e+05 ;      P - O2    
     1      5   1    1.6182e-01    3.2434e+05 ;      P - O3    
     5      6   1    1.6182e-01    3.2434e+05 ;     O3 - P1    
     6      7   1    1.4885e-01    4.7951e+05 ;     P1 - O4    
     6      8   1    1.4885e-01    4.7951e+05 ;     P1 - O5    
     6      9   1    1.6182e-01    3.2434e+05 ;     P1 - O6    
     9     10   1    1.4273e-01    2.3620e+05 ;     O6 - C     
    10     11   1    1.5372e-01    1.9049e+05 ;      C - C1    
    10     29   1    1.0969e-01    2.8804e+05 ;      C - H     
    10     30   1    1.0969e-01    2.8804e+05 ;      C - H1    
    11     12   1    1.4346e-01    2.3063e+05 ;     C1 - O7    
    11     13   1    1.5483e-01    1.8418e+05 ;     C1 - C2    
    11     31   1    1.0972e-01    2.8768e+05 ;     C1 - H2    
    12     17   1    1.4346e-01    2.3063e+05 ;     O7 - C4    
    13     14   1    1.4194e-01    2.4241e+05 ;     C2 - O8    
    13     15   1    1.5483e-01    1.8418e+05 ;     C2 - C3    
    13     32   1    1.0972e-01    2.8768e+05 ;     C2 - H3    
    14     33   1    9.7250e-02    4.4811e+05 ;     O8 - H4    
    15     16   1    1.4194e-01    2.4241e+05 ;     C3 - O9    
    15     17   1    1.5483e-01    1.8418e+05 ;     C3 - C4    
    15     34   1    1.0972e-01    2.8768e+05 ;     C3 - H5    
    16     35   1    9.7250e-02    4.4811e+05 ;     O9 - H6    
    17     18   1    1.4571e-01    2.1790e+05 ;     C4 - N     
    17     36   1    1.0955e-01    2.8977e+05 ;     C4 - H7    
    18     19   1    1.3803e-01    2.8075e+05 ;      N - C5    
    18     28   1    1.3803e-01    2.8075e+05 ;      N - C9    
    19     20   1    1.3158e-01    3.5122e+05 ;     C5 - N1    
    19     37   1    1.0820e-01    3.0708e+05 ;     C5 - H8    
    20     21   1    1.3713e-01    2.8947e+05 ;     N1 - C6    
    21     22   1    1.4728e-01    2.3273e+05 ;     C6 - C7    
    21     28   1    1.3730e-01    3.2321e+05 ;     C6 - C9    
    22     23   1    1.2190e-01    4.9421e+05 ;     C7 - O10   
    22     24   1    1.4013e-01    2.6159e+05 ;     C7 - N2    
    24     25   1    1.3158e-01    3.5122e+05 ;     N2 - C8    
    25     26   1    1.3685e-01    2.9226e+05 ;     C8 - N3    
    25     27   1    1.3803e-01    2.8075e+05 ;     C8 - N4    
    26     38   1    1.0114e-01    3.9961e+05 ;     N3 - H9    
    26     39   1    1.0114e-01    3.9961e+05 ;     N3 - H10   
    27     28   1    1.3803e-01    2.8075e+05 ;     N4 - C9    
    27     40   1    1.0095e-01    4.0315e+05 ;     N4 - H11   

[ pairs ]
;   ai     aj    funct
     1      7      1 ;      P - O4    
     1      8      1 ;      P - O5    
     1      9      1 ;      P - O6    
     2      6      1 ;      O - P1    
     3      6      1 ;     O1 - P1    
     4      6      1 ;     O2 - P1    
     5     10      1 ;     O3 - C     
     6     11      1 ;     P1 - C1    
     6     29      1 ;     P1 - H     
     6     30      1 ;     P1 - H1    
     7     10      1 ;     O4 - C     
     8     10      1 ;     O5 - C     
     9     12      1 ;     O6 - O7    
     9     13      1 ;     O6 - C2    
     9     31      1 ;     O6 - H2    
    10     14      1 ;      C - O8    
    10     15      1 ;      C - C3    
    10     17      1 ;      C - C4    
    10     32      1 ;      C - H3    
    11     16      1 ;     C1 - O9    
    11     18      1 ;     C1 - N     
    11     33      1 ;     C1 - H4    
    11     34      1 ;     C1 - H5    
    11     36      1 ;     C1 - H7    
    12     14      1 ;     O7 - O8    
    12     16      1 ;     O7 - O9    
    12     19      1 ;     O7 - C5    
    12     28      1 ;     O7 - C9    
    12     29      1 ;     O7 - H     
    12     30      1 ;     O7 - H1    
    12     32      1 ;     O7 - H3    
    12     34      1 ;     O7 - H5    
    13     18      1 ;     C2 - N     
    13     29      1 ;     C2 - H     
    13     30      1 ;     C2 - H1    
    13     35      1 ;     C2 - H6    
    13     36      1 ;     C2 - H7    
    14     16      1 ;     O8 - O9    
    14     17      1 ;     O8 - C4    
    14     31      1 ;     O8 - H2    
    14     34      1 ;     O8 - H5    
    15     19      1 ;     C3 - C5    
    15     28      1 ;     C3 - C9    
    15     31      1 ;     C3 - H2    
    15     33      1 ;     C3 - H4    
    16     18      1 ;     O9 - N     
    16     32      1 ;     O9 - H3    
    16     36      1 ;     O9 - H7    
    17     20      1 ;     C4 - N1    
    17     21      1 ;     C4 - C6    
    17     27      1 ;     C4 - N4    
    17     31      1 ;     C4 - H2    
    17     32      1 ;     C4 - H3    
    17     35      1 ;     C4 - H6    
    17     37      1 ;     C4 - H8    
    18     22      1 ;      N - C7    
    18     25      1 ;      N - C8    
    18     34      1 ;      N - H5    
    18     40      1 ;      N - H11   
    19     22      1 ;     C5 - C7    
    19     27      1 ;     C5 - N4    
    19     36      1 ;     C5 - H7    
    20     23      1 ;     N1 - O10   
    20     24      1 ;     N1 - N2    
    20     27      1 ;     N1 - N4    
    21     25      1 ;     C6 - C8    
    21     37      1 ;     C6 - H8    
    21     40      1 ;     C6 - H11   
    22     26      1 ;     C7 - N3    
    22     27      1 ;     C7 - N4    
    23     25      1 ;    O10 - C8    
    23     28      1 ;    O10 - C9    
    24     28      1 ;     N2 - C9    
    24     38      1 ;     N2 - H9    
    24     39      1 ;     N2 - H10   
    24     40      1 ;     N2 - H11   
    26     28      1 ;     N3 - C9    
    26     40      1 ;     N3 - H11   
    27     38      1 ;     N4 - H9    
    27     39      1 ;     N4 - H10   
    28     36      1 ;     C9 - H7    
    28     37      1 ;     C9 - H8    
    29     31      1 ;      H - H2    
    30     31      1 ;     H1 - H2    
    31     32      1 ;     H2 - H3    
    32     33      1 ;     H3 - H4    
    32     34      1 ;     H3 - H5    
    34     35      1 ;     H5 - H6    
    34     36      1 ;     H5 - H7    

[ angles ]
;   ai     aj     ak    funct   theta         cth
     1      5      6      1    1.2552e+02    3.1062e+02 ;      P - O3     - P1    
     2      1      3      1    1.1829e+02    8.6826e+02 ;      O - P      - O1    
     2      1      4      1    1.1829e+02    8.6826e+02 ;      O - P      - O2    
     2      1      5      1    1.1544e+02    8.3931e+02 ;      O - P      - O3    
     3      1      4      1    1.1829e+02    8.6826e+02 ;     O1 - P      - O2    
     3      1      5      1    1.1544e+02    8.3931e+02 ;     O1 - P      - O3    
     4      1      5      1    1.1544e+02    8.3931e+02 ;     O2 - P      - O3    
     5      6      7      1    1.1544e+02    8.3931e+02 ;     O3 - P1     - O4    
     5      6      8      1    1.1544e+02    8.3931e+02 ;     O3 - P1     - O5    
     5      6      9      1    1.0172e+02    8.6123e+02 ;     O3 - P1     - O6    
     6      9     10      1    1.1970e+02    4.7396e+02 ;     P1 - O6     - C     
     7      6      8      1    1.1829e+02    8.6826e+02 ;     O4 - P1     - O5    
     7      6      9      1    1.1544e+02    8.3931e+02 ;     O4 - P1     - O6    
     8      6      9      1    1.1544e+02    8.3931e+02 ;     O5 - P1     - O6    
     9     10     11      1    1.0752e+02    6.4785e+02 ;     O6 - C      - C1    
     9     10     29      1    1.1034e+02    4.7028e+02 ;     O6 - C      - H     
     9     10     30      1    1.1034e+02    4.7028e+02 ;     O6 - C      - H1    
    10     11     12      1    1.0897e+02    6.4224e+02 ;      C - C1     - O7    
    10     11     13      1    1.1360e+02    4.9647e+02 ;      C - C1     - C2    
    10     11     31      1    1.0924e+02    3.6242e+02 ;      C - C1     - H2    
    11     10     29      1    1.0938e+02    3.6217e+02 ;     C1 - C      - H     
    11     10     30      1    1.0938e+02    3.6217e+02 ;     C1 - C      - H1    
    11     12     17      1    1.0926e+02    7.4986e+02 ;     C1 - O7     - C4    
    11     13     14      1    1.1162e+02    6.3455e+02 ;     C1 - C2     - O8    
    11     13     15      1    1.0383e+02    5.1748e+02 ;     C1 - C2     - C3    
    11     13     32      1    1.1117e+02    3.5690e+02 ;     C1 - C2     - H3    
    12     11     13      1    1.0614e+02    6.4793e+02 ;     O7 - C1     - C2    
    12     11     31      1    1.0846e+02    4.7229e+02 ;     O7 - C1     - H2    
    12     17     15      1    1.0614e+02    6.4793e+02 ;     O7 - C4     - C3    
    12     17     18      1    1.0927e+02    7.0124e+02 ;     O7 - C4     - N     
    12     17     36      1    1.0947e+02    4.7028e+02 ;     O7 - C4     - H7    
    13     11     31      1    1.1117e+02    3.5690e+02 ;     C2 - C1     - H2    
    13     14     33      1    1.0717e+02    5.4727e+02 ;     C2 - O8     - H4    
    13     15     16      1    1.1162e+02    6.3455e+02 ;     C2 - C3     - O9    
    13     15     17      1    1.0383e+02    5.1748e+02 ;     C2 - C3     - C4    
    13     15     34      1    1.1117e+02    3.5690e+02 ;     C2 - C3     - H5    
    14     13     15      1    1.1162e+02    6.3455e+02 ;     O8 - C2     - C3    
    14     13     32      1    1.1027e+02    4.7254e+02 ;     O8 - C2     - H3    
    15     13     32      1    1.1117e+02    3.5690e+02 ;     C3 - C2     - H3    
    15     16     35      1    1.0717e+02    5.4727e+02 ;     C3 - O9     - H6    
    15     17     18      1    1.1485e+02    5.3714e+02 ;     C3 - C4     - N     
    15     17     36      1    1.1053e+02    3.5798e+02 ;     C3 - C4     - H7    
    16     15     17      1    1.1162e+02    6.3455e+02 ;     O9 - C3     - C4    
    16     15     34      1    1.1027e+02    4.7254e+02 ;     O9 - C3     - H5    
    17     15     34      1    1.1117e+02    3.5690e+02 ;     C4 - C3     - H5    
    17     18     19      1    1.2654e+02    6.3128e+02 ;     C4 - N      - C5    
    17     18     28      1    1.2654e+02    6.3128e+02 ;     C4 - N      - C9    
    18     17     36      1    1.0616e+02    4.0911e+02 ;      N - C4     - H7    
    18     19     20      1    1.1201e+02    6.4408e+02 ;      N - C5     - N1    
    18     19     37      1    1.2178e+02    4.0024e+02 ;      N - C5     - H8    
    18     28     21      1    1.0675e+02    6.0927e+02 ;      N - C9     - C6    
    18     28     27      1    1.0936e+02    6.3731e+02 ;      N - C9     - N4    
    19     18     28      1    1.1048e+02    6.9546e+02 ;     C5 - N      - C9    
    19     20     21      1    1.0537e+02    7.3094e+02 ;     C5 - N1     - C6    
    20     19     37      1    1.2562e+02    4.0886e+02 ;     N1 - C5     - H8    
    20     21     22      1    1.2655e+02    5.4041e+02 ;     N1 - C6     - C7    
    20     21     28      1    1.1158e+02    5.9789e+02 ;     N1 - C6     - C9    
    21     22     23      1    1.2371e+02    6.5530e+02 ;     C6 - C7     - O10   
    21     22     24      1    1.1375e+02    5.6476e+02 ;     C6 - C7     - N2    
    21     28     27      1    1.0675e+02    6.0927e+02 ;     C6 - C9     - N4    
    22     21     28      1    1.2132e+02    5.1965e+02 ;     C7 - C6     - C9    
    22     24     25      1    1.2068e+02    6.7471e+02 ;     C7 - N2     - C8    
    23     22     24      1    1.2229e+02    7.2459e+02 ;    O10 - C7     - N2    
    24     25     26      1    1.2215e+02    6.1973e+02 ;     N2 - C8     - N3    
    24     25     27      1    1.1201e+02    6.4408e+02 ;     N2 - C8     - N4    
    25     26     38      1    1.1650e+02    4.8526e+02 ;     C8 - N3     - H9    
    25     26     39      1    1.1650e+02    4.8526e+02 ;     C8 - N3     - H10   
    25     27     28      1    1.1048e+02    6.9546e+02 ;     C8 - N4     - C9    
    25     27     40      1    1.2567e+02    4.6384e+02 ;     C8 - N4     - H11   
    26     25     27      1    1.1798e+02    6.1622e+02 ;     N3 - C8     - N4    
    28     27     40      1    1.2567e+02    4.6384e+02 ;     C9 - N4     - H11   
    29     10     30      1    1.0855e+02    2.9824e+02 ;      H - C      - H1    
    38     26     39      1    1.1528e+02    3.8794e+02 ;     H9 - N3     - H10   

[ dihedrals ] ; propers
; for gromacs 4.5 or higher, using funct 9
;    i      j      k      l   func   phase     kd      pn
     1      5      6      7      9     0.00   3.34720   2 ;      P-    O3-    P1-    O4
     1      5      6      8      9     0.00   3.34720   2 ;      P-    O3-    P1-    O5
     1      5      6      9      9     0.00   3.34720   2 ;      P-    O3-    P1-    O6
     2      1      5      6      9     0.00   3.34720   2 ;      O-     P-    O3-    P1
     3      1      5      6      9     0.00   3.34720   2 ;     O1-     P-    O3-    P1
     4      1      5      6      9     0.00   3.34720   2 ;     O2-     P-    O3-    P1
     5      6      9     10      9     0.00  14.72768   2 ;     O3-    P1-    O6-     C
     6      9     10     11      9     0.00   1.60247   3 ;     P1-    O6-     C-    C1
     6      9     10     11      9   180.00  16.52680   1 ;     P1-    O6-     C-    C1
     6      9     10     29      9     0.00   0.00000   0 ;     P1-    O6-     C-     H
     6      9     10     30      9     0.00   0.00000   0 ;     P1-    O6-     C-    H1
     7      6      9     10      9     0.00   2.30120   3 ;     O4-    P1-    O6-     C
     7      6      9     10      9     0.00   3.34720   2 ;     O4-    P1-    O6-     C
     8      6      9     10      9     0.00   2.30120   3 ;     O5-    P1-    O6-     C
     8      6      9     10      9     0.00   3.34720   2 ;     O5-    P1-    O6-     C
     9     10     11     12      9     0.00   1.25520   2 ;     O6-     C-    C1-    O7
     9     10     11     12      9   180.00   2.55224   1 ;     O6-     C-    C1-    O7
     9     10     11     12      9   180.00   2.92880   3 ;     O6-     C-    C1-    O7
     9     10     11     13      9     0.00   0.65084   3 ;     O6-     C-    C1-    C2
     9     10     11     31      9     0.00   0.00000   0 ;     O6-     C-    C1-    H2
     9     10     11     31      9     0.00   1.04600   1 ;     O6-     C-    C1-    H2
    10     11     12     17      9     0.00   0.33472   2 ;      C-    C1-    O7-    C4
    10     11     12     17      9     0.00   3.13800   3 ;      C-    C1-    O7-    C4
    10     11     12     17      9   180.00   3.68192   1 ;      C-    C1-    O7-    C4
    10     11     13     14      9     0.00   0.75312   3 ;      C-    C1-    C2-    O8
    10     11     13     15      9     0.00   2.17568   3 ;      C-    C1-    C2-    C3
    10     11     13     32      9     0.00   0.65084   3 ;      C-    C1-    C2-    H3
    11     12     17     15      9     0.00   0.33472   2 ;     C1-    O7-    C4-    C3
    11     12     17     15      9     0.00   3.13800   3 ;     C1-    O7-    C4-    C3
    11     12     17     15      9   180.00   3.68192   1 ;     C1-    O7-    C4-    C3
    11     12     17     18      9     0.00   1.60247   3 ;     C1-    O7-    C4-     N
    11     12     17     18      9     0.00   2.71960   2 ;     C1-    O7-    C4-     N
    11     12     17     36      9     0.00   1.60387   3 ;     C1-    O7-    C4-    H7
    11     13     14     33      9     0.00   0.25104   3 ;     C1-    C2-    O8-    H4
    11     13     15     16      9     0.00   0.75312   3 ;     C1-    C2-    C3-    O9
    11     13     15     17      9     0.00   2.17568   3 ;     C1-    C2-    C3-    C4
    11     13     15     34      9     0.00   0.65084   3 ;     C1-    C2-    C3-    H5
    12     11     10     29      9     0.00   0.00000   0 ;     O7-    C1-     C-     H
    12     11     10     29      9     0.00   1.04600   1 ;     O7-    C1-     C-     H
    12     11     10     30      9     0.00   0.00000   0 ;     O7-    C1-     C-    H1
    12     11     10     30      9     0.00   1.04600   1 ;     O7-    C1-     C-    H1
    12     11     13     14      9     0.00   2.46856   1 ;     O7-    C1-    C2-    O8
    12     11     13     14      9     0.00   3.30536   3 ;     O7-    C1-    C2-    O8
    12     11     13     14      9     0.00   5.27184   2 ;     O7-    C1-    C2-    O8
    12     11     13     15      9     0.00   0.65084   3 ;     O7-    C1-    C2-    C3
    12     11     13     32      9     0.00   0.00000   0 ;     O7-    C1-    C2-    H3
    12     11     13     32      9     0.00   1.04600   1 ;     O7-    C1-    C2-    H3
    12     17     15     13      9     0.00   0.65084   3 ;     O7-    C4-    C3-    C2
    12     17     15     16      9     0.00   2.46856   1 ;     O7-    C4-    C3-    O9
    12     17     15     16      9     0.00   3.30536   3 ;     O7-    C4-    C3-    O9
    12     17     15     16      9     0.00   5.27184   2 ;     O7-    C4-    C3-    O9
    12     17     15     34      9     0.00   0.00000   0 ;     O7-    C4-    C3-    H5
    12     17     15     34      9     0.00   1.04600   1 ;     O7-    C4-    C3-    H5
    12     17     18     19      9     0.00   0.83680   3 ;     O7-    C4-     N-    C5
    12     17     18     19      9     0.00   6.13653   2 ;     O7-    C4-     N-    C5
    12     17     18     19      9     0.00   9.99976   1 ;     O7-    C4-     N-    C5
    12     17     18     28      9     0.00   0.83680   3 ;     O7-    C4-     N-    C9
    12     17     18     28      9     0.00   6.13653   2 ;     O7-    C4-     N-    C9
    12     17     18     28      9     0.00   9.99976   1 ;     O7-    C4-     N-    C9
    13     11     10     29      9     0.00   0.65084   3 ;     C2-    C1-     C-     H
    13     11     10     30      9     0.00   0.65084   3 ;     C2-    C1-     C-    H1
    13     11     12     17      9     0.00   0.33472   2 ;     C2-    C1-    O7-    C4
    13     11     12     17      9     0.00   3.13800   3 ;     C2-    C1-    O7-    C4
    13     11     12     17      9   180.00   3.68192   1 ;     C2-    C1-    O7-    C4
    13     15     16     35      9     0.00   0.25104   3 ;     C2-    C3-    O9-    H6
    13     15     17     18      9     0.00   0.65084   3 ;     C2-    C3-    C4-     N
    13     15     17     36      9     0.00   0.65084   3 ;     C2-    C3-    C4-    H7
    14     13     11     31      9     0.00   0.00000   0 ;     O8-    C2-    C1-    H2
    14     13     11     31      9     0.00   1.04600   1 ;     O8-    C2-    C1-    H2
    14     13     15     16      9     0.00   4.18400   1 ;     O8-    C2-    C3-    O9
    14     13     15     16      9     0.00   6.02496   3 ;     O8-    C2-    C3-    O9
    14     13     15     17      9     0.00   0.75312   3 ;     O8-    C2-    C3-    C4
    14     13     15     34      9     0.00   0.00000   0 ;     O8-    C2-    C3-    H5
    14     13     15     34      9     0.00   1.04600   1 ;     O8-    C2-    C3-    H5
    15     13     11     31      9     0.00   0.65084   3 ;     C3-    C2-    C1-    H2
    15     13     14     33      9     0.00   0.25104   3 ;     C3-    C2-    O8-    H4
    15     17     18     19      9     0.00   0.00000   0 ;     C3-    C4-     N-    C5
    15     17     18     28      9     0.00   0.00000   0 ;     C3-    C4-     N-    C9
    16     15     13     32      9     0.00   0.00000   0 ;     O9-    C3-    C2-    H3
    16     15     13     32      9     0.00   1.04600   1 ;     O9-    C3-    C2-    H3
    16     15     17     18      9     0.00   0.65084   3 ;     O9-    C3-    C4-     N
    16     15     17     36      9     0.00   0.65084   3 ;     O9-    C3-    C4-    H7
    17     12     11     31      9     0.00   1.41001   3 ;     C4-    O7-    C1-    H2
    17     15     13     32      9     0.00   0.65084   3 ;     C4-    C3-    C2-    H3
    17     15     16     35      9     0.00   0.25104   3 ;     C4-    C3-    O9-    H6
    17     18     19     20      9   180.00   7.11280   2 ;     C4-     N-    C5-    N1
    17     18     19     37      9   180.00   7.11280   2 ;     C4-     N-    C5-    H8
    17     18     28     21      9   180.00   7.11280   2 ;     C4-     N-    C9-    C6
    17     18     28     27      9   180.00   7.11280   2 ;     C4-     N-    C9-    N4
    18     17     15     34      9     0.00   0.65084   3 ;      N-    C4-    C3-    H5
    18     19     20     21      9   180.00  19.87400   2 ;      N-    C5-    N1-    C6
    18     28     21     20      9   180.00  16.73600   2 ;      N-    C9-    C6-    N1
    18     28     21     22      9   180.00  16.73600   2 ;      N-    C9-    C6-    C7
    18     28     27     25      9   180.00   7.11280   2 ;      N-    C9-    N4-    C8
    18     28     27     40      9   180.00   7.11280   2 ;      N-    C9-    N4-   H11
    19     18     17     36      9     0.00   0.00000   0 ;     C5-     N-    C4-    H7
    19     18     28     21      9   180.00   7.11280   2 ;     C5-     N-    C9-    C6
    19     18     28     27      9   180.00   7.11280   2 ;     C5-     N-    C9-    N4
    19     20     21     22      9   180.00  19.87400   2 ;     C5-    N1-    C6-    C7
    19     20     21     28      9   180.00  19.87400   2 ;     C5-    N1-    C6-    C9
    20     19     18     28      9   180.00   7.11280   2 ;     N1-    C5-     N-    C9
    20     21     22     23      9   180.00  12.02900   2 ;     N1-    C6-    C7-   O10
    20     21     22     24      9   180.00  12.02900   2 ;     N1-    C6-    C7-    N2
    20     21     28     27      9   180.00  16.73600   2 ;     N1-    C6-    C9-    N4
    21     20     19     37      9   180.00  19.87400   2 ;     C6-    N1-    C5-    H8
    21     22     24     25      9   180.00  16.73600   2 ;     C6-    C7-    N2-    C8
    21     28     27     25      9   180.00   7.11280   2 ;     C6-    C9-    N4-    C8
    21     28     27     40      9   180.00   7.11280   2 ;     C6-    C9-    N4-   H11
    22     21     28     27      9   180.00  16.73600   2 ;     C7-    C6-    C9-    N4
    22     24     25     26      9   180.00  19.87400   2 ;     C7-    N2-    C8-    N3
    22     24     25     27      9   180.00  19.87400   2 ;     C7-    N2-    C8-    N4
    23     22     21     28      9   180.00  12.02900   2 ;    O10-    C7-    C6-    C9
    23     22     24     25      9   180.00  16.73600   2 ;    O10-    C7-    N2-    C8
    24     22     21     28      9   180.00  12.02900   2 ;     N2-    C7-    C6-    C9
    24     25     26     38      9   180.00   4.39320   2 ;     N2-    C8-    N3-    H9
    24     25     26     39      9   180.00   4.39320   2 ;     N2-    C8-    N3-   H10
    24     25     27     28      9   180.00   7.11280   2 ;     N2-    C8-    N4-    C9
    24     25     27     40      9   180.00   7.11280   2 ;     N2-    C8-    N4-   H11
    26     25     27     28      9   180.00   7.11280   2 ;     N3-    C8-    N4-    C9
    26     25     27     40      9   180.00   7.11280   2 ;     N3-    C8-    N4-   H11
    27     25     26     38      9   180.00   4.39320   2 ;     N4-    C8-    N3-    H9
    27     25     26     39      9   180.00   4.39320   2 ;     N4-    C8-    N3-   H10
    28     18     17     36      9     0.00   0.00000   0 ;     C9-     N-    C4-    H7
    28     18     19     37      9   180.00   7.11280   2 ;     C9-     N-    C5-    H8
    29     10     11     31      9     0.00   0.65084   3 ;      H-     C-    C1-    H2
    30     10     11     31      9     0.00   0.65084   3 ;     H1-     C-    C1-    H2
    31     11     13     32      9     0.00   0.65084   3 ;     H2-    C1-    C2-    H3
    32     13     14     33      9     0.00   0.51463   3 ;     H3-    C2-    O8-    H4
    32     13     15     34      9     0.00   0.65084   3 ;     H3-    C2-    C3-    H5
    34     15     16     35      9     0.00   0.51463   3 ;     H5-    C3-    O9-    H6
    34     15     17     36      9     0.00   0.65084   3 ;     H5-    C3-    C4-    H7

[ dihedrals ] ; impropers
; treated as propers in GROMACS to use correct AMBER analytical function
;    i      j      k      l   func   phase     kd      pn
    17     19     18     28      4   180.00   4.60240   2 ;     C4-    C5-     N-    C9
    21     18     28     27      4   180.00   4.60240   2 ;     C6-     N-    C9-    N4
    21     24     22     23      4   180.00  43.93200   2 ;     C6-    N2-    C7-   O10
    22     28     21     20      4   180.00   4.60240   2 ;     C7-    C9-    C6-    N1
    25     28     27     40      4   180.00   4.60240   2 ;     C8-    C9-    N4-   H11
    25     38     26     39      4   180.00   4.60240   2 ;     C8-    H9-    N3-   H10
    27     24     25     26      4   180.00   4.60240   2 ;     N4-    N2-    C8-    N3
    37     18     19     20      4   180.00   4.60240   2 ;     H8-     N-    C5-    N1
