; GNP_GMX.itp created by acpype (v: 2023.10.27) on Tue Jul 28 18:03:21 2026

[ moleculetype ]
;name            nrexcl
 GNP              3

[ atoms ]
;   nr  type  resi  res  atom  cgnr     charge      mass       ; qtot   bond_type
     1   p5     1   GNP     P    1     1.319800     30.97000 ; qtot 1.320
     2    o     1   GNP     O    2    -0.935167     16.00000 ; qtot 0.385
     3    o     1   GNP    O1    3    -0.935167     16.00000 ; qtot -0.551
     4    o     1   GNP    O2    4    -0.935167     16.00000 ; qtot -1.486
     5   n7     1   GNP     N    5    -0.963400     14.01000 ; qtot -2.449
     6   p5     1   GNP    P1    6     1.554700     30.97000 ; qtot -0.894
     7    o     1   GNP    O3    7    -0.882000     16.00000 ; qtot -1.776
     8    o     1   GNP    O4    8    -0.882000     16.00000 ; qtot -2.658
     9   os     1   GNP    O5    9    -0.727800     16.00000 ; qtot -3.386
    10   p5     1   GNP    P2   10     1.646801     30.97000 ; qtot -1.739
    11    o     1   GNP    O6   11    -0.708000     16.00000 ; qtot -2.447
    12    o     1   GNP    O7   12    -0.708000     16.00000 ; qtot -3.155
    13   os     1   GNP    O8   13    -0.569200     16.00000 ; qtot -3.725
    14   c3     1   GNP     C   14     0.216400     12.01000 ; qtot -3.508
    15   c5     1   GNP    C1   15     0.063100     12.01000 ; qtot -3.445
    16   os     1   GNP    O9   16    -0.456600     16.00000 ; qtot -3.902
    17   c5     1   GNP    C2   17     0.106100     12.01000 ; qtot -3.796
    18   oh     1   GNP   O10   18    -0.650800     16.00000 ; qtot -4.446
    19   c5     1   GNP    C3   19     0.099100     12.01000 ; qtot -4.347
    20   oh     1   GNP   O11   20    -0.600800     16.00000 ; qtot -4.948
    21   c5     1   GNP    C4   21     0.237800     12.01000 ; qtot -4.710
    22   na     1   GNP    N1   22    -0.241900     14.01000 ; qtot -4.952
    23   cc     1   GNP    C5   23     0.275400     12.01000 ; qtot -4.677
    24   nd     1   GNP    N2   24    -0.803000     14.01000 ; qtot -5.480
    25   cd     1   GNP    C6   25     0.200800     12.01000 ; qtot -5.279
    26    c     1   GNP    C7   26     0.633000     12.01000 ; qtot -4.646
    27    o     1   GNP   O12   27    -0.668100     16.00000 ; qtot -5.314
    28   nc     1   GNP    N3   28    -0.797100     14.01000 ; qtot -6.111
    29   cd     1   GNP    C8   29     0.789100     12.01000 ; qtot -5.322
    30   nv     1   GNP    N4   30    -0.886800     14.01000 ; qtot -6.209
    31   na     1   GNP    N5   31    -0.671600     14.01000 ; qtot -6.880
    32   cc     1   GNP    C9   32    -0.054000     12.01000 ; qtot -6.934
    33   hn     1   GNP     H   33     0.390800      1.00800 ; qtot -6.544
    34   h1     1   GNP    H1   34     0.020700      1.00800 ; qtot -6.523
    35   h1     1   GNP    H2   35     0.020700      1.00800 ; qtot -6.502
    36   h1     1   GNP    H3   36     0.064700      1.00800 ; qtot -6.438
    37   h1     1   GNP    H4   37     0.071700      1.00800 ; qtot -6.366
    38   ho     1   GNP    H5   38     0.473000      1.00800 ; qtot -5.893
    39   h1     1   GNP    H6   39     0.080700      1.00800 ; qtot -5.812
    40   ho     1   GNP    H7   40     0.408000      1.00800 ; qtot -5.404
    41   h2     1   GNP    H8   41     0.066700      1.00800 ; qtot -5.337
    42   h5     1   GNP    H9   42     0.087100      1.00800 ; qtot -5.250
    43   hn     1   GNP   H10   43     0.390300      1.00800 ; qtot -4.860
    44   hn     1   GNP   H11   44     0.390300      1.00800 ; qtot -4.470
    45   hn     1   GNP   H12   45     0.469800      1.00800 ; qtot -4.000

[ bonds ]
;   ai     aj funct   r             k
     1      2   1    1.4885e-01    4.7951e+05 ;      P - O     
     1      3   1    1.4885e-01    4.7951e+05 ;      P - O1    
     1      4   1    1.4885e-01    4.7951e+05 ;      P - O2    
     1      5   1    1.6833e-01    2.4733e+05 ;      P - N     
     5      6   1    1.6833e-01    2.4733e+05 ;      N - P1    
     5     33   1    1.0195e-01    3.8497e+05 ;      N - H     
     6      7   1    1.4885e-01    4.7951e+05 ;     P1 - O3    
     6      8   1    1.4885e-01    4.7951e+05 ;     P1 - O4    
     6      9   1    1.6182e-01    3.2434e+05 ;     P1 - O5    
     9     10   1    1.6182e-01    3.2434e+05 ;     O5 - P2    
    10     11   1    1.4885e-01    4.7951e+05 ;     P2 - O6    
    10     12   1    1.4885e-01    4.7951e+05 ;     P2 - O7    
    10     13   1    1.6182e-01    3.2434e+05 ;     P2 - O8    
    13     14   1    1.4273e-01    2.3620e+05 ;     O8 - C     
    14     15   1    1.5372e-01    1.9049e+05 ;      C - C1    
    14     34   1    1.0969e-01    2.8804e+05 ;      C - H1    
    14     35   1    1.0969e-01    2.8804e+05 ;      C - H2    
    15     16   1    1.4346e-01    2.3063e+05 ;     C1 - O9    
    15     17   1    1.5483e-01    1.8418e+05 ;     C1 - C2    
    15     36   1    1.0972e-01    2.8768e+05 ;     C1 - H3    
    16     21   1    1.4346e-01    2.3063e+05 ;     O9 - C4    
    17     18   1    1.4194e-01    2.4241e+05 ;     C2 - O10   
    17     19   1    1.5483e-01    1.8418e+05 ;     C2 - C3    
    17     37   1    1.0972e-01    2.8768e+05 ;     C2 - H4    
    18     38   1    9.7250e-02    4.4811e+05 ;    O10 - H5    
    19     20   1    1.4194e-01    2.4241e+05 ;     C3 - O11   
    19     21   1    1.5483e-01    1.8418e+05 ;     C3 - C4    
    19     39   1    1.0972e-01    2.8768e+05 ;     C3 - H6    
    20     40   1    9.7250e-02    4.4811e+05 ;    O11 - H7    
    21     22   1    1.4571e-01    2.1790e+05 ;     C4 - N1    
    21     41   1    1.0955e-01    2.8977e+05 ;     C4 - H8    
    22     23   1    1.3803e-01    2.8075e+05 ;     N1 - C5    
    22     32   1    1.3803e-01    2.8075e+05 ;     N1 - C9    
    23     24   1    1.3158e-01    3.5122e+05 ;     C5 - N2    
    23     42   1    1.0820e-01    3.0708e+05 ;     C5 - H9    
    24     25   1    1.3713e-01    2.8947e+05 ;     N2 - C6    
    25     26   1    1.4728e-01    2.3273e+05 ;     C6 - C7    
    25     32   1    1.3730e-01    3.2321e+05 ;     C6 - C9    
    26     27   1    1.2190e-01    4.9421e+05 ;     C7 - O12   
    26     28   1    1.3744e-01    2.8644e+05 ;     C7 - N3    
    28     29   1    1.3171e-01    3.4961e+05 ;     N3 - C8    
    29     30   1    1.3704e-01    2.9037e+05 ;     C8 - N4    
    29     31   1    1.3830e-01    2.7819e+05 ;     C8 - N5    
    30     43   1    1.0114e-01    3.9961e+05 ;     N4 - H10   
    30     44   1    1.0114e-01    3.9961e+05 ;     N4 - H11   
    31     32   1    1.3803e-01    2.8075e+05 ;     N5 - C9    
    31     45   1    1.0095e-01    4.0315e+05 ;     N5 - H12   

[ pairs ]
;   ai     aj    funct
     1      7      1 ;      P - O3    
     1      8      1 ;      P - O4    
     1      9      1 ;      P - O5    
     2      6      1 ;      O - P1    
     2     33      1 ;      O - H     
     3      6      1 ;     O1 - P1    
     3     33      1 ;     O1 - H     
     4      6      1 ;     O2 - P1    
     4     33      1 ;     O2 - H     
     5     10      1 ;      N - P2    
     6     11      1 ;     P1 - O6    
     6     12      1 ;     P1 - O7    
     6     13      1 ;     P1 - O8    
     7     10      1 ;     O3 - P2    
     7     33      1 ;     O3 - H     
     8     10      1 ;     O4 - P2    
     8     33      1 ;     O4 - H     
     9     14      1 ;     O5 - C     
     9     33      1 ;     O5 - H     
    10     15      1 ;     P2 - C1    
    10     34      1 ;     P2 - H1    
    10     35      1 ;     P2 - H2    
    11     14      1 ;     O6 - C     
    12     14      1 ;     O7 - C     
    13     16      1 ;     O8 - O9    
    13     17      1 ;     O8 - C2    
    13     36      1 ;     O8 - H3    
    14     18      1 ;      C - O10   
    14     19      1 ;      C - C3    
    14     21      1 ;      C - C4    
    14     37      1 ;      C - H4    
    15     20      1 ;     C1 - O11   
    15     22      1 ;     C1 - N1    
    15     38      1 ;     C1 - H5    
    15     39      1 ;     C1 - H6    
    15     41      1 ;     C1 - H8    
    16     18      1 ;     O9 - O10   
    16     20      1 ;     O9 - O11   
    16     23      1 ;     O9 - C5    
    16     32      1 ;     O9 - C9    
    16     34      1 ;     O9 - H1    
    16     35      1 ;     O9 - H2    
    16     37      1 ;     O9 - H4    
    16     39      1 ;     O9 - H6    
    17     22      1 ;     C2 - N1    
    17     34      1 ;     C2 - H1    
    17     35      1 ;     C2 - H2    
    17     40      1 ;     C2 - H7    
    17     41      1 ;     C2 - H8    
    18     20      1 ;    O10 - O11   
    18     21      1 ;    O10 - C4    
    18     36      1 ;    O10 - H3    
    18     39      1 ;    O10 - H6    
    19     23      1 ;     C3 - C5    
    19     32      1 ;     C3 - C9    
    19     36      1 ;     C3 - H3    
    19     38      1 ;     C3 - H5    
    20     22      1 ;    O11 - N1    
    20     37      1 ;    O11 - H4    
    20     41      1 ;    O11 - H8    
    21     24      1 ;     C4 - N2    
    21     25      1 ;     C4 - C6    
    21     31      1 ;     C4 - N5    
    21     36      1 ;     C4 - H3    
    21     37      1 ;     C4 - H4    
    21     40      1 ;     C4 - H7    
    21     42      1 ;     C4 - H9    
    22     26      1 ;     N1 - C7    
    22     29      1 ;     N1 - C8    
    22     39      1 ;     N1 - H6    
    22     45      1 ;     N1 - H12   
    23     26      1 ;     C5 - C7    
    23     31      1 ;     C5 - N5    
    23     41      1 ;     C5 - H8    
    24     27      1 ;     N2 - O12   
    24     28      1 ;     N2 - N3    
    24     31      1 ;     N2 - N5    
    25     29      1 ;     C6 - C8    
    25     42      1 ;     C6 - H9    
    25     45      1 ;     C6 - H12   
    26     30      1 ;     C7 - N4    
    26     31      1 ;     C7 - N5    
    27     29      1 ;    O12 - C8    
    27     32      1 ;    O12 - C9    
    28     32      1 ;     N3 - C9    
    28     43      1 ;     N3 - H10   
    28     44      1 ;     N3 - H11   
    28     45      1 ;     N3 - H12   
    30     32      1 ;     N4 - C9    
    30     45      1 ;     N4 - H12   
    31     43      1 ;     N5 - H10   
    31     44      1 ;     N5 - H11   
    32     41      1 ;     C9 - H8    
    32     42      1 ;     C9 - H9    
    34     36      1 ;     H1 - H3    
    35     36      1 ;     H2 - H3    
    36     37      1 ;     H3 - H4    
    37     38      1 ;     H4 - H5    
    37     39      1 ;     H4 - H6    
    39     40      1 ;     H6 - H7    
    39     41      1 ;     H6 - H8    

[ angles ]
;   ai     aj     ak    funct   theta         cth
     1      5      6      1    1.2512e+02    2.6836e+02 ;      P - N      - P1    
     1      5     33      1    1.1356e+02    2.8393e+02 ;      P - N      - H     
     2      1      3      1    1.1829e+02    8.6826e+02 ;      O - P      - O1    
     2      1      4      1    1.1829e+02    8.6826e+02 ;      O - P      - O2    
     2      1      5      1    1.1376e+02    7.1580e+02 ;      O - P      - N     
     3      1      4      1    1.1829e+02    8.6826e+02 ;     O1 - P      - O2    
     3      1      5      1    1.1376e+02    7.1580e+02 ;     O1 - P      - N     
     4      1      5      1    1.1376e+02    7.1580e+02 ;     O2 - P      - N     
     5      6      7      1    1.1376e+02    7.1580e+02 ;      N - P1     - O3    
     5      6      8      1    1.1376e+02    7.1580e+02 ;      N - P1     - O4    
     5      6      9      1    1.0182e+02    7.3187e+02 ;      N - P1     - O5    
     6      5     33      1    1.1356e+02    2.8393e+02 ;     P1 - N      - H     
     6      9     10      1    1.2552e+02    3.1062e+02 ;     P1 - O5     - P2    
     7      6      8      1    1.1829e+02    8.6826e+02 ;     O3 - P1     - O4    
     7      6      9      1    1.1544e+02    8.3931e+02 ;     O3 - P1     - O5    
     8      6      9      1    1.1544e+02    8.3931e+02 ;     O4 - P1     - O5    
     9     10     11      1    1.1544e+02    8.3931e+02 ;     O5 - P2     - O6    
     9     10     12      1    1.1544e+02    8.3931e+02 ;     O5 - P2     - O7    
     9     10     13      1    1.0172e+02    8.6123e+02 ;     O5 - P2     - O8    
    10     13     14      1    1.1970e+02    4.7396e+02 ;     P2 - O8     - C     
    11     10     12      1    1.1829e+02    8.6826e+02 ;     O6 - P2     - O7    
    11     10     13      1    1.1544e+02    8.3931e+02 ;     O6 - P2     - O8    
    12     10     13      1    1.1544e+02    8.3931e+02 ;     O7 - P2     - O8    
    13     14     15      1    1.0752e+02    6.4785e+02 ;     O8 - C      - C1    
    13     14     34      1    1.1034e+02    4.7028e+02 ;     O8 - C      - H1    
    13     14     35      1    1.1034e+02    4.7028e+02 ;     O8 - C      - H2    
    14     15     16      1    1.0897e+02    6.4224e+02 ;      C - C1     - O9    
    14     15     17      1    1.1360e+02    4.9647e+02 ;      C - C1     - C2    
    14     15     36      1    1.0924e+02    3.6242e+02 ;      C - C1     - H3    
    15     14     34      1    1.0938e+02    3.6217e+02 ;     C1 - C      - H1    
    15     14     35      1    1.0938e+02    3.6217e+02 ;     C1 - C      - H2    
    15     16     21      1    1.0926e+02    7.4986e+02 ;     C1 - O9     - C4    
    15     17     18      1    1.1162e+02    6.3455e+02 ;     C1 - C2     - O10   
    15     17     19      1    1.0383e+02    5.1748e+02 ;     C1 - C2     - C3    
    15     17     37      1    1.1117e+02    3.5690e+02 ;     C1 - C2     - H4    
    16     15     17      1    1.0614e+02    6.4793e+02 ;     O9 - C1     - C2    
    16     15     36      1    1.0846e+02    4.7229e+02 ;     O9 - C1     - H3    
    16     21     19      1    1.0614e+02    6.4793e+02 ;     O9 - C4     - C3    
    16     21     22      1    1.0927e+02    7.0124e+02 ;     O9 - C4     - N1    
    16     21     41      1    1.0947e+02    4.7028e+02 ;     O9 - C4     - H8    
    17     15     36      1    1.1117e+02    3.5690e+02 ;     C2 - C1     - H3    
    17     18     38      1    1.0717e+02    5.4727e+02 ;     C2 - O10    - H5    
    17     19     20      1    1.1162e+02    6.3455e+02 ;     C2 - C3     - O11   
    17     19     21      1    1.0383e+02    5.1748e+02 ;     C2 - C3     - C4    
    17     19     39      1    1.1117e+02    3.5690e+02 ;     C2 - C3     - H6    
    18     17     19      1    1.1162e+02    6.3455e+02 ;    O10 - C2     - C3    
    18     17     37      1    1.1027e+02    4.7254e+02 ;    O10 - C2     - H4    
    19     17     37      1    1.1117e+02    3.5690e+02 ;     C3 - C2     - H4    
    19     20     40      1    1.0717e+02    5.4727e+02 ;     C3 - O11    - H7    
    19     21     22      1    1.1485e+02    5.3714e+02 ;     C3 - C4     - N1    
    19     21     41      1    1.1053e+02    3.5798e+02 ;     C3 - C4     - H8    
    20     19     21      1    1.1162e+02    6.3455e+02 ;    O11 - C3     - C4    
    20     19     39      1    1.1027e+02    4.7254e+02 ;    O11 - C3     - H6    
    21     19     39      1    1.1117e+02    3.5690e+02 ;     C4 - C3     - H6    
    21     22     23      1    1.2654e+02    6.3128e+02 ;     C4 - N1     - C5    
    21     22     32      1    1.2654e+02    6.3128e+02 ;     C4 - N1     - C9    
    22     21     41      1    1.0616e+02    4.0911e+02 ;     N1 - C4     - H8    
    22     23     24      1    1.1201e+02    6.4408e+02 ;     N1 - C5     - N2    
    22     23     42      1    1.2178e+02    4.0024e+02 ;     N1 - C5     - H9    
    22     32     25      1    1.0675e+02    6.0927e+02 ;     N1 - C9     - C6    
    22     32     31      1    1.0936e+02    6.3731e+02 ;     N1 - C9     - N5    
    23     22     32      1    1.1048e+02    6.9546e+02 ;     C5 - N1     - C9    
    23     24     25      1    1.0537e+02    7.3094e+02 ;     C5 - N2     - C6    
    24     23     42      1    1.2562e+02    4.0886e+02 ;     N2 - C5     - H9    
    24     25     26      1    1.2655e+02    5.4041e+02 ;     N2 - C6     - C7    
    24     25     32      1    1.1158e+02    5.9789e+02 ;     N2 - C6     - C9    
    25     26     27      1    1.2371e+02    6.5530e+02 ;     C6 - C7     - O12   
    25     26     28      1    1.1614e+02    5.6350e+02 ;     C6 - C7     - N3    
    25     32     31      1    1.0675e+02    6.0927e+02 ;     C6 - C9     - N5    
    26     25     32      1    1.2132e+02    5.1965e+02 ;     C7 - C6     - C9    
    26     28     29      1    1.2034e+02    6.8283e+02 ;     C7 - N3     - C8    
    27     26     28      1    1.2401e+02    7.2877e+02 ;    O12 - C7     - N3    
    28     29     30      1    1.1987e+02    6.2484e+02 ;     N3 - C8     - N4    
    28     29     31      1    1.1302e+02    6.4024e+02 ;     N3 - C8     - N5    
    29     30     43      1    1.1672e+02    4.8417e+02 ;     C8 - N4     - H10   
    29     30     44      1    1.1672e+02    4.8417e+02 ;     C8 - N4     - H11   
    29     31     32      1    1.2021e+02    6.6601e+02 ;     C8 - N5     - C9    
    29     31     45      1    1.2524e+02    4.6384e+02 ;     C8 - N5     - H12   
    30     29     31      1    1.1670e+02    6.1856e+02 ;     N4 - C8     - N5    
    32     31     45      1    1.2567e+02    4.6384e+02 ;     C9 - N5     - H12   
    34     14     35      1    1.0855e+02    2.9824e+02 ;     H1 - C      - H2    
    43     30     44      1    1.1528e+02    3.8794e+02 ;    H10 - N4     - H11   

[ dihedrals ] ; propers
; for gromacs 4.5 or higher, using funct 9
;    i      j      k      l   func   phase     kd      pn
     1      5      6      7      9   180.00  12.55200   2 ;      P-     N-    P1-    O3
     1      5      6      8      9   180.00  12.55200   2 ;      P-     N-    P1-    O4
     1      5      6      9      9   180.00  12.55200   2 ;      P-     N-    P1-    O5
     2      1      5      6      9   180.00  12.55200   2 ;      O-     P-     N-    P1
     2      1      5     33      9   180.00  12.55200   2 ;      O-     P-     N-     H
     3      1      5      6      9   180.00  12.55200   2 ;     O1-     P-     N-    P1
     3      1      5     33      9   180.00  12.55200   2 ;     O1-     P-     N-     H
     4      1      5      6      9   180.00  12.55200   2 ;     O2-     P-     N-    P1
     4      1      5     33      9   180.00  12.55200   2 ;     O2-     P-     N-     H
     5      6      9     10      9     0.00   3.34720   2 ;      N-    P1-    O5-    P2
     6      9     10     11      9     0.00   3.34720   2 ;     P1-    O5-    P2-    O6
     6      9     10     12      9     0.00   3.34720   2 ;     P1-    O5-    P2-    O7
     6      9     10     13      9     0.00   3.34720   2 ;     P1-    O5-    P2-    O8
     7      6      5     33      9   180.00  12.55200   2 ;     O3-    P1-     N-     H
     7      6      9     10      9     0.00   3.34720   2 ;     O3-    P1-    O5-    P2
     8      6      5     33      9   180.00  12.55200   2 ;     O4-    P1-     N-     H
     8      6      9     10      9     0.00   3.34720   2 ;     O4-    P1-    O5-    P2
     9      6      5     33      9   180.00  12.55200   2 ;     O5-    P1-     N-     H
     9     10     13     14      9     0.00  14.72768   2 ;     O5-    P2-    O8-     C
    10     13     14     15      9     0.00   1.60247   3 ;     P2-    O8-     C-    C1
    10     13     14     15      9   180.00  16.52680   1 ;     P2-    O8-     C-    C1
    10     13     14     34      9     0.00   0.00000   0 ;     P2-    O8-     C-    H1
    10     13     14     35      9     0.00   0.00000   0 ;     P2-    O8-     C-    H2
    11     10     13     14      9     0.00   2.30120   3 ;     O6-    P2-    O8-     C
    11     10     13     14      9     0.00   3.34720   2 ;     O6-    P2-    O8-     C
    12     10     13     14      9     0.00   2.30120   3 ;     O7-    P2-    O8-     C
    12     10     13     14      9     0.00   3.34720   2 ;     O7-    P2-    O8-     C
    13     14     15     16      9     0.00   1.25520   2 ;     O8-     C-    C1-    O9
    13     14     15     16      9   180.00   2.55224   1 ;     O8-     C-    C1-    O9
    13     14     15     16      9   180.00   2.92880   3 ;     O8-     C-    C1-    O9
    13     14     15     17      9     0.00   0.65084   3 ;     O8-     C-    C1-    C2
    13     14     15     36      9     0.00   0.00000   0 ;     O8-     C-    C1-    H3
    13     14     15     36      9     0.00   1.04600   1 ;     O8-     C-    C1-    H3
    14     15     16     21      9     0.00   0.33472   2 ;      C-    C1-    O9-    C4
    14     15     16     21      9     0.00   3.13800   3 ;      C-    C1-    O9-    C4
    14     15     16     21      9   180.00   3.68192   1 ;      C-    C1-    O9-    C4
    14     15     17     18      9     0.00   0.75312   3 ;      C-    C1-    C2-   O10
    14     15     17     19      9     0.00   2.17568   3 ;      C-    C1-    C2-    C3
    14     15     17     37      9     0.00   0.65084   3 ;      C-    C1-    C2-    H4
    15     16     21     19      9     0.00   0.33472   2 ;     C1-    O9-    C4-    C3
    15     16     21     19      9     0.00   3.13800   3 ;     C1-    O9-    C4-    C3
    15     16     21     19      9   180.00   3.68192   1 ;     C1-    O9-    C4-    C3
    15     16     21     22      9     0.00   1.60247   3 ;     C1-    O9-    C4-    N1
    15     16     21     22      9     0.00   2.71960   2 ;     C1-    O9-    C4-    N1
    15     16     21     41      9     0.00   1.60387   3 ;     C1-    O9-    C4-    H8
    15     17     18     38      9     0.00   0.25104   3 ;     C1-    C2-   O10-    H5
    15     17     19     20      9     0.00   0.75312   3 ;     C1-    C2-    C3-   O11
    15     17     19     21      9     0.00   2.17568   3 ;     C1-    C2-    C3-    C4
    15     17     19     39      9     0.00   0.65084   3 ;     C1-    C2-    C3-    H6
    16     15     14     34      9     0.00   0.00000   0 ;     O9-    C1-     C-    H1
    16     15     14     34      9     0.00   1.04600   1 ;     O9-    C1-     C-    H1
    16     15     14     35      9     0.00   0.00000   0 ;     O9-    C1-     C-    H2
    16     15     14     35      9     0.00   1.04600   1 ;     O9-    C1-     C-    H2
    16     15     17     18      9     0.00   2.46856   1 ;     O9-    C1-    C2-   O10
    16     15     17     18      9     0.00   3.30536   3 ;     O9-    C1-    C2-   O10
    16     15     17     18      9     0.00   5.27184   2 ;     O9-    C1-    C2-   O10
    16     15     17     19      9     0.00   0.65084   3 ;     O9-    C1-    C2-    C3
    16     15     17     37      9     0.00   0.00000   0 ;     O9-    C1-    C2-    H4
    16     15     17     37      9     0.00   1.04600   1 ;     O9-    C1-    C2-    H4
    16     21     19     17      9     0.00   0.65084   3 ;     O9-    C4-    C3-    C2
    16     21     19     20      9     0.00   2.46856   1 ;     O9-    C4-    C3-   O11
    16     21     19     20      9     0.00   3.30536   3 ;     O9-    C4-    C3-   O11
    16     21     19     20      9     0.00   5.27184   2 ;     O9-    C4-    C3-   O11
    16     21     19     39      9     0.00   0.00000   0 ;     O9-    C4-    C3-    H6
    16     21     19     39      9     0.00   1.04600   1 ;     O9-    C4-    C3-    H6
    16     21     22     23      9     0.00   0.83680   3 ;     O9-    C4-    N1-    C5
    16     21     22     23      9     0.00   6.13653   2 ;     O9-    C4-    N1-    C5
    16     21     22     23      9     0.00   9.99976   1 ;     O9-    C4-    N1-    C5
    16     21     22     32      9     0.00   0.83680   3 ;     O9-    C4-    N1-    C9
    16     21     22     32      9     0.00   6.13653   2 ;     O9-    C4-    N1-    C9
    16     21     22     32      9     0.00   9.99976   1 ;     O9-    C4-    N1-    C9
    17     15     14     34      9     0.00   0.65084   3 ;     C2-    C1-     C-    H1
    17     15     14     35      9     0.00   0.65084   3 ;     C2-    C1-     C-    H2
    17     15     16     21      9     0.00   0.33472   2 ;     C2-    C1-    O9-    C4
    17     15     16     21      9     0.00   3.13800   3 ;     C2-    C1-    O9-    C4
    17     15     16     21      9   180.00   3.68192   1 ;     C2-    C1-    O9-    C4
    17     19     20     40      9     0.00   0.25104   3 ;     C2-    C3-   O11-    H7
    17     19     21     22      9     0.00   0.65084   3 ;     C2-    C3-    C4-    N1
    17     19     21     41      9     0.00   0.65084   3 ;     C2-    C3-    C4-    H8
    18     17     15     36      9     0.00   0.00000   0 ;    O10-    C2-    C1-    H3
    18     17     15     36      9     0.00   1.04600   1 ;    O10-    C2-    C1-    H3
    18     17     19     20      9     0.00   4.18400   1 ;    O10-    C2-    C3-   O11
    18     17     19     20      9     0.00   6.02496   3 ;    O10-    C2-    C3-   O11
    18     17     19     21      9     0.00   0.75312   3 ;    O10-    C2-    C3-    C4
    18     17     19     39      9     0.00   0.00000   0 ;    O10-    C2-    C3-    H6
    18     17     19     39      9     0.00   1.04600   1 ;    O10-    C2-    C3-    H6
    19     17     15     36      9     0.00   0.65084   3 ;     C3-    C2-    C1-    H3
    19     17     18     38      9     0.00   0.25104   3 ;     C3-    C2-   O10-    H5
    19     21     22     23      9     0.00   0.00000   0 ;     C3-    C4-    N1-    C5
    19     21     22     32      9     0.00   0.00000   0 ;     C3-    C4-    N1-    C9
    20     19     17     37      9     0.00   0.00000   0 ;    O11-    C3-    C2-    H4
    20     19     17     37      9     0.00   1.04600   1 ;    O11-    C3-    C2-    H4
    20     19     21     22      9     0.00   0.65084   3 ;    O11-    C3-    C4-    N1
    20     19     21     41      9     0.00   0.65084   3 ;    O11-    C3-    C4-    H8
    21     16     15     36      9     0.00   1.41001   3 ;     C4-    O9-    C1-    H3
    21     19     17     37      9     0.00   0.65084   3 ;     C4-    C3-    C2-    H4
    21     19     20     40      9     0.00   0.25104   3 ;     C4-    C3-   O11-    H7
    21     22     23     24      9   180.00   7.11280   2 ;     C4-    N1-    C5-    N2
    21     22     23     42      9   180.00   7.11280   2 ;     C4-    N1-    C5-    H9
    21     22     32     25      9   180.00   7.11280   2 ;     C4-    N1-    C9-    C6
    21     22     32     31      9   180.00   7.11280   2 ;     C4-    N1-    C9-    N5
    22     21     19     39      9     0.00   0.65084   3 ;     N1-    C4-    C3-    H6
    22     23     24     25      9   180.00  19.87400   2 ;     N1-    C5-    N2-    C6
    22     32     25     24      9   180.00  16.73600   2 ;     N1-    C9-    C6-    N2
    22     32     25     26      9   180.00  16.73600   2 ;     N1-    C9-    C6-    C7
    22     32     31     29      9   180.00   7.11280   2 ;     N1-    C9-    N5-    C8
    22     32     31     45      9   180.00   7.11280   2 ;     N1-    C9-    N5-   H12
    23     22     21     41      9     0.00   0.00000   0 ;     C5-    N1-    C4-    H8
    23     22     32     25      9   180.00   7.11280   2 ;     C5-    N1-    C9-    C6
    23     22     32     31      9   180.00   7.11280   2 ;     C5-    N1-    C9-    N5
    23     24     25     26      9   180.00  19.87400   2 ;     C5-    N2-    C6-    C7
    23     24     25     32      9   180.00  19.87400   2 ;     C5-    N2-    C6-    C9
    24     23     22     32      9   180.00   7.11280   2 ;     N2-    C5-    N1-    C9
    24     25     26     27      9   180.00  12.02900   2 ;     N2-    C6-    C7-   O12
    24     25     26     28      9   180.00  12.02900   2 ;     N2-    C6-    C7-    N3
    24     25     32     31      9   180.00  16.73600   2 ;     N2-    C6-    C9-    N5
    25     24     23     42      9   180.00  19.87400   2 ;     C6-    N2-    C5-    H9
    25     26     28     29      9   180.00  16.73600   2 ;     C6-    C7-    N3-    C8
    25     32     31     29      9   180.00   7.11280   2 ;     C6-    C9-    N5-    C8
    25     32     31     45      9   180.00   7.11280   2 ;     C6-    C9-    N5-   H12
    26     25     32     31      9   180.00  16.73600   2 ;     C7-    C6-    C9-    N5
    26     28     29     30      9   180.00  19.87400   2 ;     C7-    N3-    C8-    N4
    26     28     29     31      9   180.00  19.87400   2 ;     C7-    N3-    C8-    N5
    27     26     25     32      9   180.00  12.02900   2 ;    O12-    C7-    C6-    C9
    27     26     28     29      9   180.00  16.73600   2 ;    O12-    C7-    N3-    C8
    28     26     25     32      9   180.00  12.02900   2 ;     N3-    C7-    C6-    C9
    28     29     30     43      9   180.00   4.39320   2 ;     N3-    C8-    N4-   H10
    28     29     30     44      9   180.00   4.39320   2 ;     N3-    C8-    N4-   H11
    28     29     31     32      9   180.00   7.11280   2 ;     N3-    C8-    N5-    C9
    28     29     31     45      9   180.00   7.11280   2 ;     N3-    C8-    N5-   H12
    30     29     31     32      9   180.00   7.11280   2 ;     N4-    C8-    N5-    C9
    30     29     31     45      9   180.00   7.11280   2 ;     N4-    C8-    N5-   H12
    31     29     30     43      9   180.00   4.39320   2 ;     N5-    C8-    N4-   H10
    31     29     30     44      9   180.00   4.39320   2 ;     N5-    C8-    N4-   H11
    32     22     21     41      9     0.00   0.00000   0 ;     C9-    N1-    C4-    H8
    32     22     23     42      9   180.00   7.11280   2 ;     C9-    N1-    C5-    H9
    34     14     15     36      9     0.00   0.65084   3 ;     H1-     C-    C1-    H3
    35     14     15     36      9     0.00   0.65084   3 ;     H2-     C-    C1-    H3
    36     15     17     37      9     0.00   0.65084   3 ;     H3-    C1-    C2-    H4
    37     17     18     38      9     0.00   0.51463   3 ;     H4-    C2-   O10-    H5
    37     17     19     39      9     0.00   0.65084   3 ;     H4-    C2-    C3-    H6
    39     19     20     40      9     0.00   0.51463   3 ;     H6-    C3-   O11-    H7
    39     19     21     41      9     0.00   0.65084   3 ;     H6-    C3-    C4-    H8

[ dihedrals ] ; impropers
; treated as propers in GROMACS to use correct AMBER analytical function
;    i      j      k      l   func   phase     kd      pn
    21     23     22     32      4   180.00   4.60240   2 ;     C4-    C5-    N1-    C9
    25     22     32     31      4   180.00   4.60240   2 ;     C6-    N1-    C9-    N5
    25     28     26     27      4   180.00  43.93200   2 ;     C6-    N3-    C7-   O12
    26     32     25     24      4   180.00   4.60240   2 ;     C7-    C9-    C6-    N2
    29     43     30     44      4   180.00   4.60240   2 ;     C8-   H10-    N4-   H11
    31     28     29     30      4   180.00   4.60240   2 ;     N5-    N3-    C8-    N4
    32     29     31     45      4   180.00   4.60240   2 ;     C9-    C8-    N5-   H12
    42     22     23     24      4   180.00   4.60240   2 ;     H9-    N1-    C5-    N2
